 Entering Gaussian System, Link 0=g09
 Input=water_optimization+frequencies.gau
 Output=water_optimization+frequencies.log
 Initial command:
 /usr/local/gaussian09/g09/l1.exe ./Gau-32603.inp -scrdir=./
 Entering Link 1 = /usr/local/gaussian09/g09/l1.exe PID=     32605.
  
 Copyright (c) 1988,1990,1992,1993,1995,1998,2003,2009, Gaussian, Inc.
                  All Rights Reserved.
  
 This is part of the Gaussian(R) 09 program.  It is based on
 the Gaussian(R) 03 system (copyright 2003, Gaussian, Inc.),
 the Gaussian(R) 98 system (copyright 1998, Gaussian, Inc.),
 the Gaussian(R) 94 system (copyright 1995, Gaussian, Inc.),
 the Gaussian 92(TM) system (copyright 1992, Gaussian, Inc.),
 the Gaussian 90(TM) system (copyright 1990, Gaussian, Inc.),
 the Gaussian 88(TM) system (copyright 1988, Gaussian, Inc.),
 the Gaussian 86(TM) system (copyright 1986, Carnegie Mellon
 University), and the Gaussian 82(TM) system (copyright 1983,
 Carnegie Mellon University). Gaussian is a federally registered
 trademark of Gaussian, Inc.
  
 This software contains proprietary and confidential information,
 including trade secrets, belonging to Gaussian, Inc.
  
 This software is provided under written license and may be
 used, copied, transmitted, or stored only in accord with that
 written license.
  
 The following legend is applicable only to US Government
 contracts under FAR:
  
                    RESTRICTED RIGHTS LEGEND
  
 Use, reproduction and disclosure by the US Government is
 subject to restrictions as set forth in subparagraphs (a)
 and (c) of the Commercial Computer Software - Restricted
 Rights clause in FAR 52.227-19.
  
 Gaussian, Inc.
 340 Quinnipiac St., Bldg. 40, Wallingford CT 06492
  
  
 ---------------------------------------------------------------
 Warning -- This program may not be used in any manner that
 competes with the business of Gaussian, Inc. or will provide
 assistance to any competitor of Gaussian, Inc.  The licensee
 of this program is prohibited from giving any competitor of
 Gaussian, Inc. access to this program.  By using this program,
 the user acknowledges that Gaussian, Inc. is engaged in the
 business of creating and licensing software in the field of
 computational chemistry and represents and warrants to the
 licensee that it is not a competitor of Gaussian, Inc. and that
 it will not use this program in any manner prohibited above.
 ---------------------------------------------------------------
  

 Cite this work as:
 Gaussian 09, Revision A.01,
 M. J. Frisch, G. W. Trucks, H. B. Schlegel, G. E. Scuseria, 
 M. A. Robb, J. R. Cheeseman, G. Scalmani, V. Barone, B. Mennucci, 
 G. A. Petersson, H. Nakatsuji, M. Caricato, X. Li, H. P. Hratchian, 
 A. F. Izmaylov, J. Bloino, G. Zheng, J. L. Sonnenberg, M. Hada, 
 M. Ehara, K. Toyota, R. Fukuda, J. Hasegawa, M. Ishida, T. Nakajima, 
 Y. Honda, O. Kitao, H. Nakai, T. Vreven, J. A. Montgomery, Jr., 
 J. E. Peralta, F. Ogliaro, M. Bearpark, J. J. Heyd, E. Brothers, 
 K. N. Kudin, V. N. Staroverov, R. Kobayashi, J. Normand, 
 K. Raghavachari, A. Rendell, J. C. Burant, S. S. Iyengar, J. Tomasi, 
 M. Cossi, N. Rega, J. M. Millam, M. Klene, J. E. Knox, J. B. Cross, 
 V. Bakken, C. Adamo, J. Jaramillo, R. Gomperts, R. E. Stratmann, 
 O. Yazyev, A. J. Austin, R. Cammi, C. Pomelli, J. W. Ochterski, 
 R. L. Martin, K. Morokuma, V. G. Zakrzewski, G. A. Voth, 
 P. Salvador, J. J. Dannenberg, S. Dapprich, A. D. Daniels, 
 O. Farkas, J. B. Foresman, J. V. Ortiz, J. Cioslowski, 
 and D. J. Fox, Gaussian, Inc., Wallingford CT, 2009.
 
 ******************************************
 Gaussian 09:  EM64L-G09RevA.01  8-May-2009
                29-Apr-2016 
 ******************************************
 %nproc=4
 Will use up to    4 processors via shared memory.
 %mem=2000MB
 %CHK=water_optimization+frequencies.chk
 --------------------------------------------------------------------
 #p opt=(verytight) freq rb3lyp/6-31++g(d,p) scrf=(pcm,solvent=water)
 --------------------------------------------------------------------
 1/7=1,14=-1,18=20,19=15,26=3,38=1/1,3;
 2/9=110,12=2,17=6,18=5,40=1/2;
 3/5=1,6=6,7=1111,11=2,16=1,25=1,30=1,70=2201,71=1,72=1,74=-5,116=1/1,2,3;
 4//1;
 5/5=2,38=5,53=1/2;
 6/7=2,8=2,9=2,10=2,28=1/1;
 7//1,2,3,16;
 1/7=1,14=-1,18=20,19=15/3(2);
 2/9=110/2;
 99//99;
 2/9=110/2;
 3/5=1,6=6,7=1111,11=2,16=1,25=1,30=1,70=2205,71=1,72=1,74=-5,116=1/1,2,3;
 4/5=5,16=3/1;
 5/5=2,38=5,53=1/2;
 7//1,2,3,16;
 1/7=1,14=-1,18=20,19=15/3(-5);
 2/9=110/2;
 6/7=2,8=2,9=2,10=2,19=2,28=1/1;
 99/9=1/99;
 Leave Link    1 at Fri Apr 29 16:23:08 2016, MaxMem=  262144000 cpu:       0.2
 (Enter /usr/local/gaussian09/g09/l101.exe)
 ---------------------------------
 water: optimization + frequencies
 ---------------------------------
 Symbolic Z-matrix:
 Charge =  0 Multiplicity = 1
 O                    -9.443    -5.375     12.707 
 H                    -8.952    -4.887     12.046 
 H                    -9.888    -6.064     12.215 
 
 NAtoms=      3 NQM=      3 NQMF=      0 NMic=      0 NMicF=      0 NTot=      3.
                    Isotopes and Nuclear Properties:
 (Nuclear quadrupole moments (NQMom) in fm**2, nuclear magnetic moments (NMagM)
  in nuclear magnetons)

  Atom         1           2           3
 IAtWgt=          16           1           1
 AtmWgt=  15.9949146   1.0078250   1.0078250
 NucSpn=           0           1           1
 AtZEff=   0.0000000   0.0000000   0.0000000
 NQMom=    0.0000000   0.0000000   0.0000000
 NMagM=    0.0000000   2.7928460   2.7928460
 Leave Link  101 at Fri Apr 29 16:23:09 2016, MaxMem=  262144000 cpu:       0.4
 (Enter /usr/local/gaussian09/g09/l103.exe)

 GradGradGradGradGradGradGradGradGradGradGradGradGradGradGradGradGradGrad
 Berny optimization.
 Initialization pass.
                           ----------------------------
                           !    Initial Parameters    !
                           ! (Angstroms and Degrees)  !
 --------------------------                            --------------------------
 ! Name  Definition              Value          Derivative Info.                !
 --------------------------------------------------------------------------------
 ! R1    R(1,2)                  0.9572         estimate D2E/DX2                !
 ! R2    R(1,3)                  0.9565         estimate D2E/DX2                !
 ! A1    A(2,1,3)              104.5192         estimate D2E/DX2                !
 --------------------------------------------------------------------------------
 Trust Radius=3.00D-01 FncErr=1.00D-07 GrdErr=1.00D-06
 Number of steps in this run=  20 maximum allowed number of steps= 100.
 GradGradGradGradGradGradGradGradGradGradGradGradGradGradGradGradGradGrad

 Leave Link  103 at Fri Apr 29 16:23:09 2016, MaxMem=  262144000 cpu:       0.2
 (Enter /usr/local/gaussian09/g09/l202.exe)
                          Input orientation:                          
 ---------------------------------------------------------------------
 Center     Atomic      Atomic             Coordinates (Angstroms)
 Number     Number       Type             X           Y           Z
 ---------------------------------------------------------------------
      1          8           0       -9.443000   -5.375000   12.707000
      2          1           0       -8.952000   -4.887000   12.046000
      3          1           0       -9.888000   -6.064000   12.215000
 ---------------------------------------------------------------------
                    Distance matrix (angstroms):
                    1          2          3
     1  O    0.000000
     2  H    0.957155   0.000000
     3  H    0.956457   1.513270   0.000000
 Stoichiometry    H2O
 Framework group  CS[SG(H2O)]
 Deg. of freedom     3
 Full point group                 CS      NOp   2
 Largest Abelian subgroup         CS      NOp   2
 Largest concise Abelian subgroup C1      NOp   1
                         Standard orientation:                         
 ---------------------------------------------------------------------
 Center     Atomic      Atomic             Coordinates (Angstroms)
 Number     Number       Type             X           Y           Z
 ---------------------------------------------------------------------
      1          8           0        0.000000    0.117129    0.000000
      2          1           0        0.756635   -0.469087    0.000000
      3          1           0       -0.756635   -0.467947    0.000000
 ---------------------------------------------------------------------
 Rotational constants (GHZ):    823.1467969    437.9544472    285.8619021
 Leave Link  202 at Fri Apr 29 16:23:09 2016, MaxMem=  262144000 cpu:       0.3
 (Enter /usr/local/gaussian09/g09/l301.exe)
 Standard basis: 6-31++G(d,p) (6D, 7F)
 Ernie: Thresh=  0.10000D-02 Tol=  0.10000D-05 Strict=F.
 There are    24 symmetry adapted basis functions of A'  symmetry.
 There are     7 symmetry adapted basis functions of A"  symmetry.
 Integral buffers will be    131072 words long.
 Raffenetti 2 integral format.
 Two-electron integral symmetry is turned on.
    31 basis functions,    48 primitive gaussians,    31 cartesian basis functions
     5 alpha electrons        5 beta electrons
       nuclear repulsion energy         9.1987533416 Hartrees.
 IExCor=  402 DFT=T Ex+Corr=B3LYP ExCW=0 ScaHFX=  0.200000
 ScaDFX=  0.800000  0.720000  1.000000  0.810000 ScalE2=  1.000000  1.000000
 IRadAn=      0 IRanWt=     -1 IRanGd=            0 ICorTp=0
 NAtoms=    3 NActive=    3 NUniq=    3 SFac= 7.50D-01 NAtFMM=   80 NAOKFM=F Big=F
 ------------------------------------------------------------------------------
 Polarizable Continuum Model (PCM)
 =================================
 Model                : PCM.
 Atomic radii         : UFF (Universal Force Field).
 Polarization charges : Total charges.
 Charge compensation  : None.
 Solution method      : Matrix inversion.
 Cavity type          : Scaled VdW (van der Waals Surface) (Alpha=1.100).
 Cavity algorithm     : GePol (No added spheres)
                        Default sphere list used, NSphG=    3.
                        Lebedev-Laikov grids with approx.  5.0 points / Ang**2.
                        Smoothing algorithm: Karplus/York (Gamma=1.0000).
                        Polarization charges: spherical gaussians, with
                                              point-specific exponents (IZeta= 3).
                        Self-potential: point-specific (ISelfS= 7).
                        Self-field    : sphere-specific E.n sum rule (ISelfD= 2).
 1st derivatives      : Analytical E(r).r(x)/FMM algorithm (CHGder, D1EAlg=3).
                        Cavity 1st derivative terms included.
 Solvent              : Water, Eps=  78.355300 Eps(inf)=   1.777849
 ------------------------------------------------------------------------------
 Spheres list:
 ISph  on   Nord    Re0     Alpha      Xe            Ye            Ze
    1   O      1    1.750   1.100      0.000000      0.117129      0.000000
    2   H      2    1.443   1.100      0.756635     -0.469087      0.000000
    3   H      3    1.443   1.100     -0.756635     -0.467947      0.000000
 ------------------------------------------------------------------------------
 GePol: Number of generator spheres                  =       3
 GePol: Total number of spheres                      =       3
 GePol: Number of exposed spheres                    =       3 (100.00%)
 GePol: Number of points                             =     390
 GePol: Average weight of points                     =       0.14
 GePol: Minimum weight of points                     =   0.38D-07
 GePol: Maximum weight of points                     =    0.20212
 GePol: Number of points with low weight             =      12
 GePol: Fraction of low-weight points (<1% of avg)   =       3.08%
 GePol: Cavity surface area                          =     55.456 Ang**2
 GePol: Cavity volume                                =     37.332 Ang**3
 Leave Link  301 at Fri Apr 29 16:23:09 2016, MaxMem=  262144000 cpu:       0.8
 (Enter /usr/local/gaussian09/g09/l302.exe)
 NPDir=0 NMtPBC=     1 NCelOv=     1 NCel=       1 NClECP=     1 NCelD=      1
         NCelK=      1 NCelE2=     1 NClLst=     1 CellRange=     0.0.
 One-electron integrals computed using PRISM.
 NBasis=    31 RedAO= T  NBF=    24     7
 NBsUse=    31 1.00D-06 NBFU=    24     7
 Precomputing XC quadrature grid using
 IXCGrd= 2 IRadAn=           0 IRanWt=          -1 IRanGd=           0 AccXCQ= 1.00D-10.
 NRdTot=     193 NPtTot=       24528 NUsed=       25931 NTot=       25963
 NSgBfM=    31    31    31    31    31 NAtAll=     3     3.
 Leave Link  302 at Fri Apr 29 16:23:10 2016, MaxMem=  262144000 cpu:       1.0
 (Enter /usr/local/gaussian09/g09/l303.exe)
 DipDrv:  MaxL=1.
 Leave Link  303 at Fri Apr 29 16:23:10 2016, MaxMem=  262144000 cpu:       0.6
 (Enter /usr/local/gaussian09/g09/l401.exe)
 Harris functional with IExCor=  402 diagonalized for initial guess.
 ExpMin= 3.60D-02 ExpMax= 5.48D+03 ExpMxC= 8.25D+02 IAcc=3 IRadAn=         0 AccDes= 0.00D+00
 HarFok:  IExCor=  402 AccDes= 0.00D+00 IRadAn=         0 IDoV= 1
 ScaDFX=  1.000000  1.000000  1.000000  1.000000
 FoFCou: FMM=F IPFlag=           0 FMFlag=      100000 FMFlg1=           0
         NFxFlg=           0 DoJE=T BraDBF=F KetDBF=T FulRan=T
         Omega=  0.000000  0.000000  1.000000  0.000000  0.000000 ICntrl=     500 IOpCl=  0
         NMat0=    1 NMatS0=    1 NMatT0=    0 NMatD0=    1 NMtDS0=    0 NMtDT0=    0
         I1Cent=           4 NGrid=           0.
 Petite list used in FoFCou.
 Harris En= -76.4707516152545    
 Initial guess orbital symmetries:
       Occupied  (A') (A') (A') (A') (A")
       Virtual   (A') (A') (A') (A") (A') (A') (A') (A') (A') (A')
                 (A") (A') (A') (A') (A") (A') (A") (A') (A') (A')
                 (A") (A") (A') (A') (A') (A')
 The electronic state of the initial guess is 1-A'.
 Leave Link  401 at Fri Apr 29 16:23:11 2016, MaxMem=  262144000 cpu:       1.2
 (Enter /usr/local/gaussian09/g09/l502.exe)
 Closed shell SCF:
 Requested convergence on RMS density matrix=1.00D-08 within 128 cycles.
 Requested convergence on MAX density matrix=1.00D-06.
 Requested convergence on             energy=1.00D-06.
 No special actions if energy rises.
 Using DIIS extrapolation, IDIIS=  1040.
 Integral symmetry usage will be decided dynamically.
        25891 words used for storage of precomputed grid.
 Keep R1 ints in memory in canonical form, NReq=3216780.
 IEnd=       47355 IEndB=       47355 NGot=   262144000 MDV=   261990994
 LenX=   261990994 LenY=   261989592
 Symmetry not used in FoFDir.
 MinBra= 0 MaxBra= 2 Meth= 1.
 IRaf=       0 NMat=   1 IRICut=       1 DoRegI=T DoRafI=F ISym2E= 0 JSym2E=0.

 Cycle   1  Pass 1  IDiag  1:
 E= -76.3716213067699    
 DIIS: error= 6.38D-02 at cycle   1 NSaved=   1.
 NSaved= 1 IEnMin= 1 EnMin= -76.3716213067699     IErMin= 1 ErrMin= 6.38D-02
 ErrMax= 6.38D-02 EMaxC= 1.00D-01 BMatC= 9.36D-02 BMatP= 9.36D-02
 IDIUse=3 WtCom= 3.62D-01 WtEn= 6.38D-01
 Coeff-Com:  0.100D+01
 Coeff-En:   0.100D+01
 Coeff:      0.100D+01
 Gap=     0.162 Goal=   None    Shift=    0.000
 GapD=    0.162 DampG=1.000 DampE=0.500 DampFc=0.5000 IDamp=-1.
 Damping current iteration by 5.00D-01
 RMSDP=1.50D-02 MaxDP=1.82D-01              OVMax= 2.25D-01

 Cycle   2  Pass 1  IDiag  1:
 E= -76.3850650510996     Delta-E=       -0.013443744330 Rises=F Damp=T
 DIIS: error= 2.33D-02 at cycle   2 NSaved=   2.
 NSaved= 2 IEnMin= 2 EnMin= -76.3850650510996     IErMin= 2 ErrMin= 2.33D-02
 ErrMax= 2.33D-02 EMaxC= 1.00D-01 BMatC= 1.17D-02 BMatP= 9.36D-02
 IDIUse=3 WtCom= 7.67D-01 WtEn= 2.33D-01
 Coeff-Com:  0.253D+00 0.747D+00
 Coeff-En:   0.414D+00 0.586D+00
 Coeff:      0.291D+00 0.709D+00
 Gap=     0.299 Goal=   None    Shift=    0.000
 RMSDP=1.92D-03 MaxDP=1.78D-02 DE=-1.34D-02 OVMax= 1.42D-01

 Cycle   3  Pass 1  IDiag  1:
 E= -76.4419320820852     Delta-E=       -0.056867030986 Rises=F Damp=F
 DIIS: error= 3.53D-03 at cycle   3 NSaved=   3.
 NSaved= 3 IEnMin= 3 EnMin= -76.4419320820852     IErMin= 3 ErrMin= 3.53D-03
 ErrMax= 3.53D-03 EMaxC= 1.00D-01 BMatC= 3.17D-04 BMatP= 1.17D-02
 IDIUse=3 WtCom= 9.65D-01 WtEn= 3.53D-02
 Coeff-Com:  0.441D-01-0.356D-01 0.992D+00
 Coeff-En:   0.000D+00 0.000D+00 0.100D+01
 Coeff:      0.425D-01-0.344D-01 0.992D+00
 Gap=     0.312 Goal=   None    Shift=    0.000
 RMSDP=2.70D-04 MaxDP=3.47D-03 DE=-5.69D-02 OVMax= 3.44D-03

 Cycle   4  Pass 1  IDiag  1:
 E= -76.4421345498031     Delta-E=       -0.000202467718 Rises=F Damp=F
 DIIS: error= 3.82D-04 at cycle   4 NSaved=   4.
 NSaved= 4 IEnMin= 4 EnMin= -76.4421345498031     IErMin= 4 ErrMin= 3.82D-04
 ErrMax= 3.82D-04 EMaxC= 1.00D-01 BMatC= 3.55D-06 BMatP= 3.17D-04
 IDIUse=3 WtCom= 9.96D-01 WtEn= 3.82D-03
 Coeff-Com:  0.846D-02-0.199D-01 0.202D+00 0.809D+00
 Coeff-En:   0.000D+00 0.000D+00 0.000D+00 0.100D+01
 Coeff:      0.842D-02-0.198D-01 0.201D+00 0.810D+00
 Gap=     0.313 Goal=   None    Shift=    0.000
 RMSDP=2.45D-05 MaxDP=2.71D-04 DE=-2.02D-04 OVMax= 4.15D-04

 Cycle   5  Pass 1  IDiag  1:
 E= -76.4421370529235     Delta-E=       -0.000002503120 Rises=F Damp=F
 DIIS: error= 1.24D-04 at cycle   5 NSaved=   5.
 NSaved= 5 IEnMin= 5 EnMin= -76.4421370529235     IErMin= 5 ErrMin= 1.24D-04
 ErrMax= 1.24D-04 EMaxC= 1.00D-01 BMatC= 3.13D-07 BMatP= 3.55D-06
 IDIUse=3 WtCom= 9.99D-01 WtEn= 1.24D-03
 Coeff-Com:  0.204D-02-0.282D-02 0.173D-01 0.773D-01 0.906D+00
 Coeff-En:   0.000D+00 0.000D+00 0.000D+00 0.000D+00 0.100D+01
 Coeff:      0.204D-02-0.281D-02 0.173D-01 0.772D-01 0.906D+00
 Gap=     0.313 Goal=   None    Shift=    0.000
 RMSDP=9.80D-06 MaxDP=1.14D-04 DE=-2.50D-06 OVMax= 1.39D-04

 Cycle   6  Pass 1  IDiag  1:
 E= -76.4421372896263     Delta-E=       -0.000000236703 Rises=F Damp=F
 DIIS: error= 1.12D-05 at cycle   6 NSaved=   6.
 NSaved= 6 IEnMin= 6 EnMin= -76.4421372896263     IErMin= 6 ErrMin= 1.12D-05
 ErrMax= 1.12D-05 EMaxC= 1.00D-01 BMatC= 2.60D-09 BMatP= 3.13D-07
 IDIUse=1 WtCom= 1.00D+00 WtEn= 0.00D+00
 Coeff-Com:  0.319D-04-0.516D-04-0.122D-05-0.476D-02-0.578D-01 0.106D+01
 Coeff:      0.319D-04-0.516D-04-0.122D-05-0.476D-02-0.578D-01 0.106D+01
 Gap=     0.313 Goal=   None    Shift=    0.000
 RMSDP=9.04D-07 MaxDP=1.15D-05 DE=-2.37D-07 OVMax= 1.34D-05

 Cycle   7  Pass 1  IDiag  1:
 E= -76.4421372915684     Delta-E=       -0.000000001942 Rises=F Damp=F
 DIIS: error= 2.46D-07 at cycle   7 NSaved=   7.
 NSaved= 7 IEnMin= 7 EnMin= -76.4421372915684     IErMin= 7 ErrMin= 2.46D-07
 ErrMax= 2.46D-07 EMaxC= 1.00D-01 BMatC= 1.43D-12 BMatP= 2.60D-09
 IDIUse=1 WtCom= 1.00D+00 WtEn= 0.00D+00
 Coeff-Com: -0.147D-05 0.130D-05-0.221D-05-0.136D-04-0.792D-03-0.255D-01
 Coeff-Com:  0.103D+01
 Coeff:     -0.147D-05 0.130D-05-0.221D-05-0.136D-04-0.792D-03-0.255D-01
 Coeff:      0.103D+01
 Gap=     0.313 Goal=   None    Shift=    0.000
 RMSDP=2.10D-08 MaxDP=2.49D-07 DE=-1.94D-09 OVMax= 3.11D-07

 Cycle   8  Pass 1  IDiag  1:
 E= -76.4421372915695     Delta-E=       -0.000000000001 Rises=F Damp=F
 DIIS: error= 3.90D-09 at cycle   8 NSaved=   8.
 NSaved= 8 IEnMin= 8 EnMin= -76.4421372915695     IErMin= 8 ErrMin= 3.90D-09
 ErrMax= 3.90D-09 EMaxC= 1.00D-01 BMatC= 8.08D-16 BMatP= 1.43D-12
 IDIUse=1 WtCom= 1.00D+00 WtEn= 0.00D+00
 Coeff-Com:  0.363D-08 0.284D-07 0.139D-05 0.311D-04 0.319D-03-0.657D-02
 Coeff-Com:  0.601D-01 0.946D+00
 Coeff:      0.363D-08 0.284D-07 0.139D-05 0.311D-04 0.319D-03-0.657D-02
 Coeff:      0.601D-01 0.946D+00
 Gap=     0.313 Goal=   None    Shift=    0.000
 RMSDP=9.73D-10 MaxDP=7.23D-09 DE=-1.02D-12 OVMax= 1.45D-08

 Error on total polarization charges =  0.00726
 SCF Done:  E(RB3LYP) =  -76.4421372916     A.U. after    8 cycles
             Convg  =    0.9727D-09             -V/T =  2.0092
 KE= 7.574677996859D+01 PE=-1.987125023853D+02 EE= 3.732483178351D+01
 Leave Link  502 at Fri Apr 29 16:23:13 2016, MaxMem=  262144000 cpu:       6.0
 (Enter /usr/local/gaussian09/g09/l601.exe)
 Copying SCF densities to generalized density rwf, IOpCl= 0 IROHF=0.

 **********************************************************************

            Population analysis using the SCF density.

 **********************************************************************

 Orbital symmetries:
       Occupied  (A') (A') (A') (A') (A")
       Virtual   (A') (A') (A') (A") (A') (A') (A') (A') (A') (A')
                 (A") (A') (A') (A') (A") (A') (A") (A') (A') (A')
                 (A") (A") (A') (A') (A') (A')
 The electronic state is 1-A'.
 Alpha  occ. eigenvalues --  -19.17062  -1.02698  -0.54238  -0.40317  -0.32691
 Alpha virt. eigenvalues --   -0.01412   0.03957   0.13728   0.14638   0.17093
 Alpha virt. eigenvalues --    0.20834   0.21864   0.27686   0.91968   1.00838
 Alpha virt. eigenvalues --    1.10653   1.12816   1.15727   1.35983   1.50631
 Alpha virt. eigenvalues --    1.53558   1.62247   2.25252   2.26591   2.52710
 Alpha virt. eigenvalues --    2.63707   2.66798   3.04131   3.36802   3.57354
 Alpha virt. eigenvalues --    4.01488
          Condensed to atoms (all electrons):
              1          2          3
     1  O    8.176007   0.286051   0.286141
     2  H    0.286051   0.361642  -0.021804
     3  H    0.286141  -0.021804   0.361576
 Mulliken atomic charges:
              1
     1  O   -0.748199
     2  H    0.374111
     3  H    0.374088
 Sum of Mulliken atomic charges =   0.00000
 Mulliken charges with hydrogens summed into heavy atoms:
              1
     1  O    0.000000
 Sum of Mulliken charges with hydrogens summed into heavy atoms =   0.00000
 Electronic spatial extent (au):  <R**2>=             20.0059
 Charge=              0.0000 electrons
 Dipole moment (field-independent basis, Debye):
    X=             -0.0005    Y=             -2.4553    Z=              0.0000  Tot=              2.4553
 Quadrupole moment (field-independent basis, Debye-Ang):
   XX=             -4.3598   YY=             -6.4952   ZZ=             -7.9181
   XY=             -0.0020   XZ=              0.0000   YZ=              0.0000
 Traceless Quadrupole moment (field-independent basis, Debye-Ang):
   XX=              1.8979   YY=             -0.2375   ZZ=             -1.6604
   XY=             -0.0020   XZ=              0.0000   YZ=              0.0000
 Octapole moment (field-independent basis, Debye-Ang**2):
  XXX=             -0.0012  YYY=             -1.9579  ZZZ=              0.0000  XYY=              0.0012
  XXY=             -1.5538  XXZ=              0.0000  XZZ=             -0.0005  YZZ=             -0.5839
  YYZ=              0.0000  XYZ=              0.0000
 Hexadecapole moment (field-independent basis, Debye-Ang**3):
 XXXX=             -6.3331 YYYY=             -8.1438 ZZZZ=             -8.1156 XXXY=             -0.0001
 XXXZ=              0.0000 YYYX=             -0.0003 YYYZ=              0.0000 ZZZX=              0.0000
 ZZZY=              0.0000 XXYY=             -2.0719 XXZZ=             -2.6897 YYZZ=             -2.7660
 XXYZ=              0.0000 YYXZ=              0.0000 ZZXY=              0.0004
 N-N= 9.198753341646D+00 E-N=-1.987125024415D+02  KE= 7.574677996859D+01
 Symmetry A'   KE= 7.131324827353D+01
 Symmetry A"   KE= 4.433531695059D+00
 No NMR shielding tensors so no spin-rotation constants.
 Leave Link  601 at Fri Apr 29 16:23:13 2016, MaxMem=  262144000 cpu:       0.9
 (Enter /usr/local/gaussian09/g09/l701.exe)
 Compute integral first derivatives.
 ... and contract with generalized density number  0.
 D1PCM: PCM CHGder 1st derivatives, ID1Alg=3 FixD1E=F DoIter=F DoCFld=F I1PDM=0.
 GePol: Maximum number of non-zero 1st derivatives   =     264
 Leave Link  701 at Fri Apr 29 16:23:14 2016, MaxMem=  262144000 cpu:       2.3
 (Enter /usr/local/gaussian09/g09/l702.exe)
 L702 exits ... SP integral derivatives will be done elsewhere.
 Leave Link  702 at Fri Apr 29 16:23:14 2016, MaxMem=  262144000 cpu:       0.1
 (Enter /usr/local/gaussian09/g09/l703.exe)
 Compute integral first derivatives, UseDBF=F ICtDFT=           0.
 Integral derivatives from FoFDir, PRISM(SPDF).
 Calling FoFJK, ICntrl=      2127 FMM=F ISym2X=1 I1Cent= 0 IOpClX= 0 NMat=1 NMatS=1 NMatT=0.
 FoFCou: FMM=F IPFlag=           0 FMFlag=      100000 FMFlg1=         800
         NFxFlg=           0 DoJE=F BraDBF=F KetDBF=F FulRan=T
         Omega=  0.000000  0.000000  1.000000  0.000000  0.000000 ICntrl=    2127 IOpCl=  0
         NMat0=    1 NMatS0=    1 NMatT0=    0 NMatD0=    1 NMtDS0=    0 NMtDT0=    0
         I1Cent=           0 NGrid=           0.
 Petite list used in FoFCou.
 Leave Link  703 at Fri Apr 29 16:23:15 2016, MaxMem=  262144000 cpu:       1.3
 (Enter /usr/local/gaussian09/g09/l716.exe)
 Dipole        =-1.83983907D-04-9.65971742D-01 6.75564801D-16
 ***** Axes restored to original set *****
 -------------------------------------------------------------------
 Center     Atomic                   Forces (Hartrees/Bohr)
 Number     Number              X              Y              Z
 -------------------------------------------------------------------
      1        8          -0.000059472    0.002372168    0.010831976
      2        1           0.005713047    0.006012049   -0.006214434
      3        1          -0.005653576   -0.008384217   -0.004617542
 -------------------------------------------------------------------
 Cartesian Forces:  Max     0.010831976 RMS     0.006271141
 Leave Link  716 at Fri Apr 29 16:23:15 2016, MaxMem=  262144000 cpu:       0.1
 (Enter /usr/local/gaussian09/g09/l103.exe)

 GradGradGradGradGradGradGradGradGradGradGradGradGradGradGradGradGradGrad
 Berny optimization.
 Internal  Forces:  Max     0.011045983 RMS     0.008812544
 Search for a local minimum.
 Step number   1 out of a maximum of   20
 All quantities printed in internal units (Hartrees-Bohrs-Radians)
 RMS Force = .88125D-02 SwitMx=.10000D-02 MixMth= 1
 Mixed Optimization -- RFO/linear search
 Second derivative matrix not updated -- first step.
 The second derivative matrix:
                          R1        R2        A1
           R1           0.56090
           R2           0.00000   0.56242
           A1           0.00000   0.00000   0.16000
     Eigenvalues ---    0.16000   0.56090   0.56242
 RFO step:  Lambda=-4.37384524D-04 EMin= 1.60000000D-01
 Linear search not attempted -- first point.
 Iteration  1 RMS(Cart)=  0.01865923 RMS(Int)=  0.00009255
 Iteration  2 RMS(Cart)=  0.00007354 RMS(Int)=  0.00000000
 Iteration  3 RMS(Cart)=  0.00000000 RMS(Int)=  0.00000000
 ClnCor:  largest displacement from symmetrization is 3.97D-15 for atom     1.
 Variable       Old X    -DE/DX   Delta X   Delta X   Delta X     New X
                                 (Linear)    (Quad)   (Total)
    R1        1.80876   0.01029   0.00000   0.01833   0.01833   1.82709
    R2        1.80744   0.01105   0.00000   0.01962   0.01962   1.82707
    A1        1.82420   0.00227   0.00000   0.01414   0.01414   1.83835
         Item               Value     Threshold  Converged?
 Maximum Force            0.011046     0.000002     NO 
 RMS     Force            0.008813     0.000001     NO 
 Maximum Displacement     0.018081     0.000006     NO 
 RMS     Displacement     0.018694     0.000004     NO 
 Predicted change in Energy=-2.188939D-04
 GradGradGradGradGradGradGradGradGradGradGradGradGradGradGradGradGradGrad

 Leave Link  103 at Fri Apr 29 16:23:15 2016, MaxMem=  262144000 cpu:       0.4
 (Enter /usr/local/gaussian09/g09/l202.exe)
                          Input orientation:                          
 ---------------------------------------------------------------------
 Center     Atomic      Atomic             Coordinates (Angstroms)
 Number     Number       Type             X           Y           Z
 ---------------------------------------------------------------------
      1          8           0       -9.442869   -5.374729   12.707448
      2          1           0       -8.944581   -4.877703   12.044516
      3          1           0       -9.895550   -6.073568   12.216036
 ---------------------------------------------------------------------
                    Distance matrix (angstroms):
                    1          2          3
     1  O    0.000000
     2  H    0.966853   0.000000
     3  H    0.966842   1.537483   0.000000
 Stoichiometry    H2O
 Framework group  CS[SG(H2O)]
 Deg. of freedom     3
 Full point group                 CS      NOp   2
 Largest Abelian subgroup         CS      NOp   2
 Largest concise Abelian subgroup C1      NOp   1
                         Standard orientation:                         
 ---------------------------------------------------------------------
 Center     Atomic      Atomic             Coordinates (Angstroms)
 Number     Number       Type             X           Y           Z
 ---------------------------------------------------------------------
      1          8           0        0.000000    0.117274    0.000000
      2          1           0        0.768742   -0.469105    0.000000
      3          1           0       -0.768742   -0.469087    0.000000
 ---------------------------------------------------------------------
 Rotational constants (GHZ):    821.1142427    424.2690007    279.7318183
 Leave Link  202 at Fri Apr 29 16:23:15 2016, MaxMem=  262144000 cpu:       0.0
 (Enter /usr/local/gaussian09/g09/l301.exe)
 Standard basis: 6-31++G(d,p) (6D, 7F)
 Ernie: Thresh=  0.10000D-02 Tol=  0.10000D-05 Strict=F.
 There are    24 symmetry adapted basis functions of A'  symmetry.
 There are     7 symmetry adapted basis functions of A"  symmetry.
 Integral buffers will be    131072 words long.
 Raffenetti 2 integral format.
 Two-electron integral symmetry is turned on.
    31 basis functions,    48 primitive gaussians,    31 cartesian basis functions
     5 alpha electrons        5 beta electrons
       nuclear repulsion energy         9.1013427782 Hartrees.
 IExCor=  402 DFT=T Ex+Corr=B3LYP ExCW=0 ScaHFX=  0.200000
 ScaDFX=  0.800000  0.720000  1.000000  0.810000 ScalE2=  1.000000  1.000000
 IRadAn=      0 IRanWt=     -1 IRanGd=            0 ICorTp=0
 NAtoms=    3 NActive=    3 NUniq=    3 SFac= 7.50D-01 NAtFMM=   80 NAOKFM=F Big=F
 ------------------------------------------------------------------------------
 Polarizable Continuum Model (PCM)
 =================================
 Model                : PCM.
 Atomic radii         : UFF (Universal Force Field).
 Polarization charges : Total charges.
 Charge compensation  : None.
 Solution method      : Matrix inversion.
 Cavity type          : Scaled VdW (van der Waals Surface) (Alpha=1.100).
 Cavity algorithm     : GePol (No added spheres)
                        Default sphere list used, NSphG=    3.
                        Lebedev-Laikov grids with approx.  5.0 points / Ang**2.
                        Smoothing algorithm: Karplus/York (Gamma=1.0000).
                        Polarization charges: spherical gaussians, with
                                              point-specific exponents (IZeta= 3).
                        Self-potential: point-specific (ISelfS= 7).
                        Self-field    : sphere-specific E.n sum rule (ISelfD= 2).
 1st derivatives      : Analytical E(r).r(x)/FMM algorithm (CHGder, D1EAlg=3).
                        Cavity 1st derivative terms included.
 Solvent              : Water, Eps=  78.355300 Eps(inf)=   1.777849
 ------------------------------------------------------------------------------
 Spheres list:
 ISph  on   Nord    Re0     Alpha      Xe            Ye            Ze
    1   O      1    1.750   1.100      0.000000      0.117274      0.000000
    2   H      2    1.443   1.100      0.768742     -0.469105      0.000000
    3   H      3    1.443   1.100     -0.768742     -0.469087      0.000000
 ------------------------------------------------------------------------------
 GePol: Number of generator spheres                  =       3
 GePol: Total number of spheres                      =       3
 GePol: Number of exposed spheres                    =       3 (100.00%)
 GePol: Number of points                             =     392
 GePol: Average weight of points                     =       0.14
 GePol: Minimum weight of points                     =   0.24D-06
 GePol: Maximum weight of points                     =    0.20212
 GePol: Number of points with low weight             =      12
 GePol: Fraction of low-weight points (<1% of avg)   =       3.06%
 GePol: Cavity surface area                          =     55.745 Ang**2
 GePol: Cavity volume                                =     37.544 Ang**3
 Leave Link  301 at Fri Apr 29 16:23:15 2016, MaxMem=  262144000 cpu:       0.2
 (Enter /usr/local/gaussian09/g09/l302.exe)
 NPDir=0 NMtPBC=     1 NCelOv=     1 NCel=       1 NClECP=     1 NCelD=      1
         NCelK=      1 NCelE2=     1 NClLst=     1 CellRange=     0.0.
 One-electron integrals computed using PRISM.
 NBasis=    31 RedAO= T  NBF=    24     7
 NBsUse=    31 1.00D-06 NBFU=    24     7
 Precomputing XC quadrature grid using
 IXCGrd= 2 IRadAn=           0 IRanWt=          -1 IRanGd=           0 AccXCQ= 1.00D-10.
 NRdTot=     193 NPtTot=       24528 NUsed=       25931 NTot=       25963
 NSgBfM=    31    31    31    31    31 NAtAll=     3     3.
 Leave Link  302 at Fri Apr 29 16:23:15 2016, MaxMem=  262144000 cpu:       0.6
 (Enter /usr/local/gaussian09/g09/l303.exe)
 DipDrv:  MaxL=1.
 Leave Link  303 at Fri Apr 29 16:23:15 2016, MaxMem=  262144000 cpu:       0.1
 (Enter /usr/local/gaussian09/g09/l401.exe)
 Initial guess read from the read-write file.
 B after Tr=     0.000000    0.000000    0.000000
         Rot=    1.000000    0.000000    0.000000    0.000000 Ang=   0.00 deg.
 Guess basis will be translated and rotated to current coordinates.
 Initial guess orbital symmetries:
       Occupied  (A') (A') (A') (A') (A")
       Virtual   (A') (A') (A') (A") (A') (A') (A') (A') (A') (A')
                 (A") (A') (A') (A') (A") (A') (A") (A') (A') (A')
                 (A") (A") (A') (A') (A') (A')
 The electronic state of the initial guess is 1-A'.
 Leave Link  401 at Fri Apr 29 16:23:15 2016, MaxMem=  262144000 cpu:       0.5
 (Enter /usr/local/gaussian09/g09/l502.exe)
 Closed shell SCF:
 Requested convergence on RMS density matrix=1.00D-08 within 128 cycles.
 Requested convergence on MAX density matrix=1.00D-06.
 Requested convergence on             energy=1.00D-06.
 No special actions if energy rises.
 Using DIIS extrapolation, IDIIS=  1040.
 Integral symmetry usage will be decided dynamically.
        25891 words used for storage of precomputed grid.
 Keep R1 ints in memory in canonical form, NReq=3218666.
 IEnd=       47355 IEndB=       47355 NGot=   262144000 MDV=   261990994
 LenX=   261990994 LenY=   261989592
 Symmetry not used in FoFDir.
 MinBra= 0 MaxBra= 2 Meth= 1.
 IRaf=       0 NMat=   1 IRICut=       1 DoRegI=T DoRafI=F ISym2E= 0 JSym2E=0.

 Cycle   1  Pass 1  IDiag  1:
 E= -76.4422861988096    
 DIIS: error= 1.73D-03 at cycle   1 NSaved=   1.
 NSaved= 1 IEnMin= 1 EnMin= -76.4422861988096     IErMin= 1 ErrMin= 1.73D-03
 ErrMax= 1.73D-03 EMaxC= 1.00D-01 BMatC= 6.15D-05 BMatP= 6.15D-05
 IDIUse=3 WtCom= 9.83D-01 WtEn= 1.73D-02
 Coeff-Com:  0.100D+01
 Coeff-En:   0.100D+01
 Coeff:      0.100D+01
 Gap=     0.310 Goal=   None    Shift=    0.000
 GapD=    0.310 DampG=1.000 DampE=1.000 DampFc=1.0000 IDamp=-1.
 RMSDP=2.80D-04 MaxDP=2.29D-03              OVMax= 3.91D-03

 Cycle   2  Pass 1  IDiag  1:
 E= -76.4423229599803     Delta-E=       -0.000036761171 Rises=F Damp=F
 DIIS: error= 1.18D-03 at cycle   2 NSaved=   2.
 NSaved= 2 IEnMin= 2 EnMin= -76.4423229599803     IErMin= 2 ErrMin= 1.18D-03
 ErrMax= 1.18D-03 EMaxC= 1.00D-01 BMatC= 2.94D-05 BMatP= 6.15D-05
 IDIUse=3 WtCom= 9.88D-01 WtEn= 1.18D-02
 Coeff-Com:  0.372D+00 0.628D+00
 Coeff-En:   0.000D+00 0.100D+01
 Coeff:      0.368D+00 0.632D+00
 Gap=     0.312 Goal=   None    Shift=    0.000
 RMSDP=1.52D-04 MaxDP=2.03D-03 DE=-3.68D-05 OVMax= 2.32D-03

 Cycle   3  Pass 1  IDiag  1:
 E= -76.4423359213548     Delta-E=       -0.000012961375 Rises=F Damp=F
 DIIS: error= 7.08D-04 at cycle   3 NSaved=   3.
 NSaved= 3 IEnMin= 3 EnMin= -76.4423359213548     IErMin= 3 ErrMin= 7.08D-04
 ErrMax= 7.08D-04 EMaxC= 1.00D-01 BMatC= 1.17D-05 BMatP= 2.94D-05
 IDIUse=3 WtCom= 9.93D-01 WtEn= 7.08D-03
 Coeff-Com:  0.177D-01 0.385D+00 0.598D+00
 Coeff-En:   0.000D+00 0.307D+00 0.693D+00
 Coeff:      0.176D-01 0.384D+00 0.598D+00
 Gap=     0.311 Goal=   None    Shift=    0.000
 RMSDP=5.92D-05 MaxDP=7.54D-04 DE=-1.30D-05 OVMax= 8.78D-04

 Cycle   4  Pass 1  IDiag  1:
 E= -76.4423442396677     Delta-E=       -0.000008318313 Rises=F Damp=F
 DIIS: error= 3.00D-05 at cycle   4 NSaved=   4.
 NSaved= 4 IEnMin= 4 EnMin= -76.4423442396677     IErMin= 4 ErrMin= 3.00D-05
 ErrMax= 3.00D-05 EMaxC= 1.00D-01 BMatC= 2.48D-08 BMatP= 1.17D-05
 IDIUse=1 WtCom= 1.00D+00 WtEn= 0.00D+00
 Coeff-Com: -0.448D-02 0.645D-01 0.123D+00 0.817D+00
 Coeff:     -0.448D-02 0.645D-01 0.123D+00 0.817D+00
 Gap=     0.311 Goal=   None    Shift=    0.000
 RMSDP=3.49D-06 MaxDP=3.09D-05 DE=-8.32D-06 OVMax= 5.19D-05

 Cycle   5  Pass 1  IDiag  1:
 E= -76.4423442600607     Delta-E=       -0.000000020393 Rises=F Damp=F
 DIIS: error= 1.68D-06 at cycle   5 NSaved=   5.
 NSaved= 5 IEnMin= 5 EnMin= -76.4423442600607     IErMin= 5 ErrMin= 1.68D-06
 ErrMax= 1.68D-06 EMaxC= 1.00D-01 BMatC= 1.13D-10 BMatP= 2.48D-08
 IDIUse=1 WtCom= 1.00D+00 WtEn= 0.00D+00
 Coeff-Com: -0.456D-03-0.372D-02-0.568D-02 0.292D-01 0.981D+00
 Coeff:     -0.456D-03-0.372D-02-0.568D-02 0.292D-01 0.981D+00
 Gap=     0.311 Goal=   None    Shift=    0.000
 RMSDP=4.80D-07 MaxDP=4.77D-06 DE=-2.04D-08 OVMax= 1.01D-05

 Cycle   6  Pass 1  IDiag  1:
 E= -76.4423442602308     Delta-E=       -0.000000000170 Rises=F Damp=F
 DIIS: error= 3.18D-07 at cycle   6 NSaved=   6.
 NSaved= 6 IEnMin= 6 EnMin= -76.4423442602308     IErMin= 6 ErrMin= 3.18D-07
 ErrMax= 3.18D-07 EMaxC= 1.00D-01 BMatC= 1.20D-12 BMatP= 1.13D-10
 IDIUse=1 WtCom= 1.00D+00 WtEn= 0.00D+00
 Coeff-Com:  0.493D-04-0.430D-03-0.547D-03-0.661D-02-0.539D-01 0.106D+01
 Coeff:      0.493D-04-0.430D-03-0.547D-03-0.661D-02-0.539D-01 0.106D+01
 Gap=     0.311 Goal=   None    Shift=    0.000
 RMSDP=6.18D-08 MaxDP=5.47D-07 DE=-1.70D-10 OVMax= 1.16D-06

 Cycle   7  Pass 1  IDiag  1:
 E= -76.4423442602330     Delta-E=       -0.000000000002 Rises=F Damp=F
 DIIS: error= 1.76D-08 at cycle   7 NSaved=   7.
 NSaved= 7 IEnMin= 7 EnMin= -76.4423442602330     IErMin= 7 ErrMin= 1.76D-08
 ErrMax= 1.76D-08 EMaxC= 1.00D-01 BMatC= 1.16D-14 BMatP= 1.20D-12
 IDIUse=1 WtCom= 1.00D+00 WtEn= 0.00D+00
 Coeff-Com:  0.763D-05-0.316D-04-0.484D-04-0.100D-02-0.107D-01 0.126D+00
 Coeff-Com:  0.886D+00
 Coeff:      0.763D-05-0.316D-04-0.484D-04-0.100D-02-0.107D-01 0.126D+00
 Coeff:      0.886D+00
 Gap=     0.311 Goal=   None    Shift=    0.000
 RMSDP=3.93D-09 MaxDP=2.99D-08 DE=-2.17D-12 OVMax= 6.55D-08

 Error on total polarization charges =  0.00737
 SCF Done:  E(RB3LYP) =  -76.4423442602     A.U. after    7 cycles
             Convg  =    0.3929D-08             -V/T =  2.0097
 KE= 7.570890276954D+01 PE=-1.985059057010D+02 EE= 3.725331589305D+01
 Leave Link  502 at Fri Apr 29 16:23:17 2016, MaxMem=  262144000 cpu:       5.1
 (Enter /usr/local/gaussian09/g09/l701.exe)
 Compute integral first derivatives.
 ... and contract with generalized density number  0.
 D1PCM: PCM CHGder 1st derivatives, ID1Alg=3 FixD1E=F DoIter=F DoCFld=F I1PDM=0.
 GePol: Maximum number of non-zero 1st derivatives   =     266
 Leave Link  701 at Fri Apr 29 16:23:17 2016, MaxMem=  262144000 cpu:       1.7
 (Enter /usr/local/gaussian09/g09/l702.exe)
 L702 exits ... SP integral derivatives will be done elsewhere.
 Leave Link  702 at Fri Apr 29 16:23:17 2016, MaxMem=  262144000 cpu:       0.1
 (Enter /usr/local/gaussian09/g09/l703.exe)
 Compute integral first derivatives, UseDBF=F ICtDFT=           0.
 Integral derivatives from FoFDir, PRISM(SPDF).
 Calling FoFJK, ICntrl=      2127 FMM=F ISym2X=1 I1Cent= 0 IOpClX= 0 NMat=1 NMatS=1 NMatT=0.
 FoFCou: FMM=F IPFlag=           0 FMFlag=      100000 FMFlg1=         800
         NFxFlg=           0 DoJE=F BraDBF=F KetDBF=F FulRan=T
         Omega=  0.000000  0.000000  1.000000  0.000000  0.000000 ICntrl=    2127 IOpCl=  0
         NMat0=    1 NMatS0=    1 NMatT0=    0 NMatD0=    1 NMtDS0=    0 NMtDT0=    0
         I1Cent=           0 NGrid=           0.
 Petite list used in FoFCou.
 Leave Link  703 at Fri Apr 29 16:23:18 2016, MaxMem=  262144000 cpu:       1.1
 (Enter /usr/local/gaussian09/g09/l716.exe)
 Dipole        =-2.74629033D-06-9.64064154D-01-4.42701225D-16
 ***** Axes restored to original set *****
 -------------------------------------------------------------------
 Center     Atomic                   Forces (Hartrees/Bohr)
 Number     Number              X              Y              Z
 -------------------------------------------------------------------
      1        8          -0.000024670    0.000139807    0.000759916
      2        1          -0.000248739   -0.000397480   -0.000329643
      3        1           0.000273409    0.000257673   -0.000430273
 -------------------------------------------------------------------
 Cartesian Forces:  Max     0.000759916 RMS     0.000373041
 Leave Link  716 at Fri Apr 29 16:23:18 2016, MaxMem=  262144000 cpu:       0.1
 (Enter /usr/local/gaussian09/g09/l103.exe)

 GradGradGradGradGradGradGradGradGradGradGradGradGradGradGradGradGradGrad
 Berny optimization.
 Using GEDIIS/GDIIS optimizer.
 Internal  Forces:  Max     0.001028965 RMS     0.000599790
 Search for a local minimum.
 Step number   2 out of a maximum of   20
 All quantities printed in internal units (Hartrees-Bohrs-Radians)
 RMS Force = .59979D-03 SwitMx=.10000D-02 MixMth= 2
 Mixed Optimization -- En-DIIS/RFO-DIIS
 Update second derivatives using D2CorX and points    1    2
 DE= -2.07D-04 DEPred=-2.19D-04 R= 9.46D-01
 SS=  1.41D+00  RLast= 3.03D-02 DXNew= 5.0454D-01 9.1045D-02
 Trust test= 9.46D-01 RLast= 3.03D-02 DXMaxT set to 3.00D-01
 The second derivative matrix:
                          R1        R2        A1
           R1           0.55613
           R2          -0.00555   0.55600
           A1           0.02198   0.02347   0.17215
 Use linear search instead of GDIIS.
     Eigenvalues ---    0.16944   0.55322   0.56162
 RFO step:  Lambda=-5.47321064D-06 EMin= 1.69435285D-01
 Quartic linear search produced a step of -0.04165.
 Iteration  1 RMS(Cart)=  0.00341335 RMS(Int)=  0.00000681
 Iteration  2 RMS(Cart)=  0.00000595 RMS(Int)=  0.00000000
 Iteration  3 RMS(Cart)=  0.00000000 RMS(Int)=  0.00000000
 ClnCor:  largest displacement from symmetrization is 3.97D-15 for atom     1.
 Variable       Old X    -DE/DX   Delta X   Delta X   Delta X     New X
                                 (Linear)    (Quad)   (Total)
    R1        1.82709  -0.00011  -0.00076   0.00079   0.00003   1.82711
    R2        1.82707  -0.00010  -0.00082   0.00088   0.00006   1.82713
    A1        1.83835  -0.00103  -0.00059  -0.00545  -0.00604   1.83231
         Item               Value     Threshold  Converged?
 Maximum Force            0.001029     0.000002     NO 
 RMS     Force            0.000600     0.000001     NO 
 Maximum Displacement     0.002893     0.000006     NO 
 RMS     Displacement     0.003416     0.000004     NO 
 Predicted change in Energy=-3.077086D-06
 GradGradGradGradGradGradGradGradGradGradGradGradGradGradGradGradGradGrad

 Leave Link  103 at Fri Apr 29 16:23:18 2016, MaxMem=  262144000 cpu:       0.1
 (Enter /usr/local/gaussian09/g09/l202.exe)
                          Input orientation:                          
 ---------------------------------------------------------------------
 Center     Atomic      Atomic             Coordinates (Angstroms)
 Number     Number       Type             X           Y           Z
 ---------------------------------------------------------------------
      1          8           0       -9.442926   -5.374456   12.708979
      2          1           0       -8.945639   -4.879206   12.043949
      3          1           0       -9.894435   -6.072338   12.215072
 ---------------------------------------------------------------------
                    Distance matrix (angstroms):
                    1          2          3
     1  O    0.000000
     2  H    0.966867   0.000000
     3  H    0.966874   1.533969   0.000000
 Stoichiometry    H2O
 Framework group  CS[SG(H2O)]
 Deg. of freedom     3
 Full point group                 CS      NOp   2
 Largest Abelian subgroup         CS      NOp   2
 Largest concise Abelian subgroup C1      NOp   1
                         Standard orientation:                         
 ---------------------------------------------------------------------
 Center     Atomic      Atomic             Coordinates (Angstroms)
 Number     Number       Type             X           Y           Z
 ---------------------------------------------------------------------
      1          8           0        0.000000    0.117741    0.000000
      2          1           0        0.766985   -0.470957    0.000000
      3          1           0       -0.766985   -0.470969    0.000000
 ---------------------------------------------------------------------
 Rotational constants (GHZ):    814.6168225    426.2149301    279.8138034
 Leave Link  202 at Fri Apr 29 16:23:18 2016, MaxMem=  262144000 cpu:       0.0
 (Enter /usr/local/gaussian09/g09/l301.exe)
 Standard basis: 6-31++G(d,p) (6D, 7F)
 Ernie: Thresh=  0.10000D-02 Tol=  0.10000D-05 Strict=F.
 There are    24 symmetry adapted basis functions of A'  symmetry.
 There are     7 symmetry adapted basis functions of A"  symmetry.
 Integral buffers will be    131072 words long.
 Raffenetti 2 integral format.
 Two-electron integral symmetry is turned on.
    31 basis functions,    48 primitive gaussians,    31 cartesian basis functions
     5 alpha electrons        5 beta electrons
       nuclear repulsion energy         9.1019237024 Hartrees.
 IExCor=  402 DFT=T Ex+Corr=B3LYP ExCW=0 ScaHFX=  0.200000
 ScaDFX=  0.800000  0.720000  1.000000  0.810000 ScalE2=  1.000000  1.000000
 IRadAn=      0 IRanWt=     -1 IRanGd=            0 ICorTp=0
 NAtoms=    3 NActive=    3 NUniq=    3 SFac= 7.50D-01 NAtFMM=   80 NAOKFM=F Big=F
 ------------------------------------------------------------------------------
 Polarizable Continuum Model (PCM)
 =================================
 Model                : PCM.
 Atomic radii         : UFF (Universal Force Field).
 Polarization charges : Total charges.
 Charge compensation  : None.
 Solution method      : Matrix inversion.
 Cavity type          : Scaled VdW (van der Waals Surface) (Alpha=1.100).
 Cavity algorithm     : GePol (No added spheres)
                        Default sphere list used, NSphG=    3.
                        Lebedev-Laikov grids with approx.  5.0 points / Ang**2.
                        Smoothing algorithm: Karplus/York (Gamma=1.0000).
                        Polarization charges: spherical gaussians, with
                                              point-specific exponents (IZeta= 3).
                        Self-potential: point-specific (ISelfS= 7).
                        Self-field    : sphere-specific E.n sum rule (ISelfD= 2).
 1st derivatives      : Analytical E(r).r(x)/FMM algorithm (CHGder, D1EAlg=3).
                        Cavity 1st derivative terms included.
 Solvent              : Water, Eps=  78.355300 Eps(inf)=   1.777849
 ------------------------------------------------------------------------------
 Spheres list:
 ISph  on   Nord    Re0     Alpha      Xe            Ye            Ze
    1   O      1    1.750   1.100      0.000000      0.117741      0.000000
    2   H      2    1.443   1.100      0.766985     -0.470957      0.000000
    3   H      3    1.443   1.100     -0.766985     -0.470969      0.000000
 ------------------------------------------------------------------------------
 GePol: Number of generator spheres                  =       3
 GePol: Total number of spheres                      =       3
 GePol: Number of exposed spheres                    =       3 (100.00%)
 GePol: Number of points                             =     392
 GePol: Average weight of points                     =       0.14
 GePol: Minimum weight of points                     =   0.23D-05
 GePol: Maximum weight of points                     =    0.20212
 GePol: Number of points with low weight             =      12
 GePol: Fraction of low-weight points (<1% of avg)   =       3.06%
 GePol: Cavity surface area                          =     55.730 Ang**2
 GePol: Cavity volume                                =     37.536 Ang**3
 Leave Link  301 at Fri Apr 29 16:23:18 2016, MaxMem=  262144000 cpu:       0.3
 (Enter /usr/local/gaussian09/g09/l302.exe)
 NPDir=0 NMtPBC=     1 NCelOv=     1 NCel=       1 NClECP=     1 NCelD=      1
         NCelK=      1 NCelE2=     1 NClLst=     1 CellRange=     0.0.
 One-electron integrals computed using PRISM.
 NBasis=    31 RedAO= T  NBF=    24     7
 NBsUse=    31 1.00D-06 NBFU=    24     7
 Precomputing XC quadrature grid using
 IXCGrd= 2 IRadAn=           0 IRanWt=          -1 IRanGd=           0 AccXCQ= 1.00D-10.
 NRdTot=     193 NPtTot=       24528 NUsed=       25931 NTot=       25963
 NSgBfM=    31    31    31    31    31 NAtAll=     3     3.
 Leave Link  302 at Fri Apr 29 16:23:18 2016, MaxMem=  262144000 cpu:       0.6
 (Enter /usr/local/gaussian09/g09/l303.exe)
 DipDrv:  MaxL=1.
 Leave Link  303 at Fri Apr 29 16:23:18 2016, MaxMem=  262144000 cpu:       0.1
 (Enter /usr/local/gaussian09/g09/l401.exe)
 Initial guess read from the read-write file.
 B after Tr=     0.000000    0.000000    0.000000
         Rot=    1.000000    0.000000    0.000000    0.000000 Ang=   0.00 deg.
 Guess basis will be translated and rotated to current coordinates.
 Initial guess orbital symmetries:
       Occupied  (A') (A') (A') (A') (A")
       Virtual   (A') (A') (A') (A") (A') (A') (A') (A') (A') (A')
                 (A") (A') (A') (A') (A") (A') (A") (A') (A') (A')
                 (A") (A") (A') (A') (A') (A')
 The electronic state of the initial guess is 1-A'.
 Leave Link  401 at Fri Apr 29 16:23:18 2016, MaxMem=  262144000 cpu:       0.4
 (Enter /usr/local/gaussian09/g09/l502.exe)
 Closed shell SCF:
 Requested convergence on RMS density matrix=1.00D-08 within 128 cycles.
 Requested convergence on MAX density matrix=1.00D-06.
 Requested convergence on             energy=1.00D-06.
 No special actions if energy rises.
 Using DIIS extrapolation, IDIIS=  1040.
 Integral symmetry usage will be decided dynamically.
        25891 words used for storage of precomputed grid.
 Keep R1 ints in memory in canonical form, NReq=3218666.
 IEnd=       47355 IEndB=       47355 NGot=   262144000 MDV=   261990994
 LenX=   261990994 LenY=   261989592
 Symmetry not used in FoFDir.
 MinBra= 0 MaxBra= 2 Meth= 1.
 IRaf=       0 NMat=   1 IRICut=       1 DoRegI=T DoRafI=F ISym2E= 0 JSym2E=0.

 Cycle   1  Pass 1  IDiag  1:
 E= -76.4423464032553    
 DIIS: error= 2.01D-04 at cycle   1 NSaved=   1.
 NSaved= 1 IEnMin= 1 EnMin= -76.4423464032553     IErMin= 1 ErrMin= 2.01D-04
 ErrMax= 2.01D-04 EMaxC= 1.00D-01 BMatC= 1.03D-06 BMatP= 1.03D-06
 IDIUse=3 WtCom= 9.98D-01 WtEn= 2.01D-03
 Coeff-Com:  0.100D+01
 Coeff-En:   0.100D+01
 Coeff:      0.100D+01
 Gap=     0.311 Goal=   None    Shift=    0.000
 RMSDP=5.43D-05 MaxDP=3.03D-04              OVMax= 5.96D-04

 Cycle   2  Pass 1  IDiag  1:
 E= -76.4423476578978     Delta-E=       -0.000001254643 Rises=F Damp=F
 DIIS: error= 1.29D-05 at cycle   2 NSaved=   2.
 NSaved= 2 IEnMin= 2 EnMin= -76.4423476578978     IErMin= 2 ErrMin= 1.29D-05
 ErrMax= 1.29D-05 EMaxC= 1.00D-01 BMatC= 4.24D-09 BMatP= 1.03D-06
 IDIUse=1 WtCom= 1.00D+00 WtEn= 0.00D+00
 Coeff-Com: -0.385D-01 0.104D+01
 Coeff:     -0.385D-01 0.104D+01
 Gap=     0.311 Goal=   None    Shift=    0.000
 RMSDP=5.81D-06 MaxDP=4.27D-05 DE=-1.25D-06 OVMax= 5.82D-05

 Cycle   3  Pass 1  IDiag  1:
 E= -76.4423476647963     Delta-E=       -0.000000006898 Rises=F Damp=F
 DIIS: error= 6.42D-06 at cycle   3 NSaved=   3.
 NSaved= 3 IEnMin= 3 EnMin= -76.4423476647963     IErMin= 3 ErrMin= 6.42D-06
 ErrMax= 6.42D-06 EMaxC= 1.00D-01 BMatC= 9.89D-10 BMatP= 4.24D-09
 IDIUse=1 WtCom= 1.00D+00 WtEn= 0.00D+00
 Coeff-Com: -0.150D-01 0.339D+00 0.676D+00
 Coeff:     -0.150D-01 0.339D+00 0.676D+00
 Gap=     0.311 Goal=   None    Shift=    0.000
 RMSDP=1.07D-06 MaxDP=1.13D-05 DE=-6.90D-09 OVMax= 1.27D-05

 Cycle   4  Pass 1  IDiag  1:
 E= -76.4423476651586     Delta-E=       -0.000000000362 Rises=F Damp=F
 DIIS: error= 4.81D-06 at cycle   4 NSaved=   4.
 NSaved= 4 IEnMin= 4 EnMin= -76.4423476651586     IErMin= 4 ErrMin= 4.81D-06
 ErrMax= 4.81D-06 EMaxC= 1.00D-01 BMatC= 5.15D-10 BMatP= 9.89D-10
 IDIUse=1 WtCom= 1.00D+00 WtEn= 0.00D+00
 Coeff-Com: -0.241D-02 0.181D-01 0.419D+00 0.566D+00
 Coeff:     -0.241D-02 0.181D-01 0.419D+00 0.566D+00
 Gap=     0.311 Goal=   None    Shift=    0.000
 RMSDP=3.89D-07 MaxDP=5.22D-06 DE=-3.62D-10 OVMax= 5.95D-06

 Cycle   5  Pass 1  IDiag  1:
 E= -76.4423476655250     Delta-E=       -0.000000000366 Rises=F Damp=F
 DIIS: error= 2.80D-07 at cycle   5 NSaved=   5.
 NSaved= 5 IEnMin= 5 EnMin= -76.4423476655250     IErMin= 5 ErrMin= 2.80D-07
 ErrMax= 2.80D-07 EMaxC= 1.00D-01 BMatC= 1.72D-12 BMatP= 5.15D-10
 IDIUse=1 WtCom= 1.00D+00 WtEn= 0.00D+00
 Coeff-Com:  0.313D-04-0.634D-02 0.682D-01 0.123D+00 0.815D+00
 Coeff:      0.313D-04-0.634D-02 0.682D-01 0.123D+00 0.815D+00
 Gap=     0.311 Goal=   None    Shift=    0.000
 RMSDP=3.82D-08 MaxDP=2.73D-07 DE=-3.66D-10 OVMax= 4.78D-07

 Cycle   6  Pass 1  IDiag  1:
 E= -76.4423476655266     Delta-E=       -0.000000000002 Rises=F Damp=F
 DIIS: error= 1.08D-08 at cycle   6 NSaved=   6.
 NSaved= 6 IEnMin= 6 EnMin= -76.4423476655266     IErMin= 6 ErrMin= 1.08D-08
 ErrMax= 1.08D-08 EMaxC= 1.00D-01 BMatC= 5.87D-15 BMatP= 1.72D-12
 IDIUse=1 WtCom= 1.00D+00 WtEn= 0.00D+00
 Coeff-Com:  0.312D-04-0.428D-03-0.577D-02-0.853D-02 0.607D-02 0.101D+01
 Coeff:      0.312D-04-0.428D-03-0.577D-02-0.853D-02 0.607D-02 0.101D+01
 Gap=     0.311 Goal=   None    Shift=    0.000
 RMSDP=5.62D-09 MaxDP=4.98D-08 DE=-1.58D-12 OVMax= 7.46D-08

 Error on total polarization charges =  0.00735
 SCF Done:  E(RB3LYP) =  -76.4423476655     A.U. after    6 cycles
             Convg  =    0.5618D-08             -V/T =  2.0097
 KE= 7.570952979068D+01 PE=-1.985068962628D+02 EE= 3.725309510420D+01
 Leave Link  502 at Fri Apr 29 16:23:19 2016, MaxMem=  262144000 cpu:       4.4
 (Enter /usr/local/gaussian09/g09/l701.exe)
 Compute integral first derivatives.
 ... and contract with generalized density number  0.
 D1PCM: PCM CHGder 1st derivatives, ID1Alg=3 FixD1E=F DoIter=F DoCFld=F I1PDM=0.
 GePol: Maximum number of non-zero 1st derivatives   =     266
 Leave Link  701 at Fri Apr 29 16:23:20 2016, MaxMem=  262144000 cpu:       1.8
 (Enter /usr/local/gaussian09/g09/l702.exe)
 L702 exits ... SP integral derivatives will be done elsewhere.
 Leave Link  702 at Fri Apr 29 16:23:20 2016, MaxMem=  262144000 cpu:       0.1
 (Enter /usr/local/gaussian09/g09/l703.exe)
 Compute integral first derivatives, UseDBF=F ICtDFT=           0.
 Integral derivatives from FoFDir, PRISM(SPDF).
 Calling FoFJK, ICntrl=      2127 FMM=F ISym2X=1 I1Cent= 0 IOpClX= 0 NMat=1 NMatS=1 NMatT=0.
 FoFCou: FMM=F IPFlag=           0 FMFlag=      100000 FMFlg1=         800
         NFxFlg=           0 DoJE=F BraDBF=F KetDBF=F FulRan=T
         Omega=  0.000000  0.000000  1.000000  0.000000  0.000000 ICntrl=    2127 IOpCl=  0
         NMat0=    1 NMatS0=    1 NMatT0=    0 NMatD0=    1 NMtDS0=    0 NMtDT0=    0
         I1Cent=           0 NGrid=           0.
 Petite list used in FoFCou.
 Leave Link  703 at Fri Apr 29 16:23:20 2016, MaxMem=  262144000 cpu:       1.1
 (Enter /usr/local/gaussian09/g09/l716.exe)
 Dipole        = 1.87859148D-06-9.66620737D-01-1.74777459D-15
 ***** Axes restored to original set *****
 -------------------------------------------------------------------
 Center     Atomic                   Forces (Hartrees/Bohr)
 Number     Number              X              Y              Z
 -------------------------------------------------------------------
      1        8          -0.000009126    0.000019922    0.000140496
      2        1           0.000007460   -0.000006808   -0.000072939
      3        1           0.000001666   -0.000013114   -0.000067557
 -------------------------------------------------------------------
 Cartesian Forces:  Max     0.000140496 RMS     0.000058099
 Leave Link  716 at Fri Apr 29 16:23:20 2016, MaxMem=  262144000 cpu:       0.1
 (Enter /usr/local/gaussian09/g09/l103.exe)

 GradGradGradGradGradGradGradGradGradGradGradGradGradGradGradGradGradGrad
 Berny optimization.
 Using GEDIIS/GDIIS optimizer.
 Internal  Forces:  Max     0.000097906 RMS     0.000068322
 Search for a local minimum.
 Step number   3 out of a maximum of   20
 All quantities printed in internal units (Hartrees-Bohrs-Radians)
 RMS Force = .68322D-04 SwitMx=.10000D-02 MixMth= 2
 Mixed Optimization -- En-DIIS/RFO-DIIS
 Swaping is turned off.
 Update second derivatives using D2CorX and points    1    2    3
 DE= -3.41D-06 DEPred=-3.08D-06 R= 1.11D+00
 SS=  1.41D+00  RLast= 6.04D-03 DXNew= 5.0454D-01 1.8128D-02
 Trust test= 1.11D+00 RLast= 6.04D-03 DXMaxT set to 3.00D-01
 The second derivative matrix:
                          R1        R2        A1
           R1           0.55609
           R2          -0.00577   0.55568
           A1           0.02835   0.02848   0.15449
     Eigenvalues ---    0.15045   0.55415   0.56166
 En-DIIS/RFO-DIIS IScMMF=        0 using points:     3    2
 RFO step:  Lambda=-3.21774879D-08.
 DIIS coeffs:      1.10609     -0.10609
 Iteration  1 RMS(Cart)=  0.00035177 RMS(Int)=  0.00000009
 Iteration  2 RMS(Cart)=  0.00000009 RMS(Int)=  0.00000000
 ClnCor:  largest displacement from symmetrization is 1.78D-15 for atom     1.
 Variable       Old X    -DE/DX   Delta X   Delta X   Delta X     New X
                                  (DIIS)     (GDIIS)  (Total)
    R1        1.82711   0.00005   0.00000   0.00012   0.00013   1.82724
    R2        1.82713   0.00004   0.00001   0.00011   0.00011   1.82724
    A1        1.83231  -0.00010  -0.00064  -0.00004  -0.00068   1.83163
         Item               Value     Threshold  Converged?
 Maximum Force            0.000098     0.000002     NO 
 RMS     Force            0.000068     0.000001     NO 
 Maximum Displacement     0.000371     0.000006     NO 
 RMS     Displacement     0.000352     0.000004     NO 
 Predicted change in Energy=-3.884203D-08
 GradGradGradGradGradGradGradGradGradGradGradGradGradGradGradGradGradGrad

 Leave Link  103 at Fri Apr 29 16:23:20 2016, MaxMem=  262144000 cpu:       0.0
 (Enter /usr/local/gaussian09/g09/l202.exe)
                          Input orientation:                          
 ---------------------------------------------------------------------
 Center     Atomic      Atomic             Coordinates (Angstroms)
 Number     Number       Type             X           Y           Z
 ---------------------------------------------------------------------
      1          8           0       -9.442935   -5.374424   12.709175
      2          1           0       -8.945727   -4.879338   12.043867
      3          1           0       -9.894338   -6.072238   12.214958
 ---------------------------------------------------------------------
                    Distance matrix (angstroms):
                    1          2          3
     1  O    0.000000
     2  H    0.966934   0.000000
     3  H    0.966934   1.533671   0.000000
 Stoichiometry    H2O
 Framework group  CS[SG(H2O)]
 Deg. of freedom     3
 Full point group                 CS      NOp   2
 Largest Abelian subgroup         CS      NOp   2
 Largest concise Abelian subgroup C1      NOp   1
                         Standard orientation:                         
 ---------------------------------------------------------------------
 Center     Atomic      Atomic             Coordinates (Angstroms)
 Number     Number       Type             X           Y           Z
 ---------------------------------------------------------------------
      1          8           0        0.000000    0.117801    0.000000
      2          1           0        0.766836   -0.471202    0.000000
      3          1           0       -0.766836   -0.471203    0.000000
 ---------------------------------------------------------------------
 Rotational constants (GHZ):    813.7908273    426.3807467    279.7876905
 Leave Link  202 at Fri Apr 29 16:23:20 2016, MaxMem=  262144000 cpu:       0.0
 (Enter /usr/local/gaussian09/g09/l301.exe)
 Standard basis: 6-31++G(d,p) (6D, 7F)
 Ernie: Thresh=  0.10000D-02 Tol=  0.10000D-05 Strict=F.
 There are    24 symmetry adapted basis functions of A'  symmetry.
 There are     7 symmetry adapted basis functions of A"  symmetry.
 Integral buffers will be    131072 words long.
 Raffenetti 2 integral format.
 Two-electron integral symmetry is turned on.
    31 basis functions,    48 primitive gaussians,    31 cartesian basis functions
     5 alpha electrons        5 beta electrons
       nuclear repulsion energy         9.1014147772 Hartrees.
 IExCor=  402 DFT=T Ex+Corr=B3LYP ExCW=0 ScaHFX=  0.200000
 ScaDFX=  0.800000  0.720000  1.000000  0.810000 ScalE2=  1.000000  1.000000
 IRadAn=      0 IRanWt=     -1 IRanGd=            0 ICorTp=0
 NAtoms=    3 NActive=    3 NUniq=    3 SFac= 7.50D-01 NAtFMM=   80 NAOKFM=F Big=F
 ------------------------------------------------------------------------------
 Polarizable Continuum Model (PCM)
 =================================
 Model                : PCM.
 Atomic radii         : UFF (Universal Force Field).
 Polarization charges : Total charges.
 Charge compensation  : None.
 Solution method      : Matrix inversion.
 Cavity type          : Scaled VdW (van der Waals Surface) (Alpha=1.100).
 Cavity algorithm     : GePol (No added spheres)
                        Default sphere list used, NSphG=    3.
                        Lebedev-Laikov grids with approx.  5.0 points / Ang**2.
                        Smoothing algorithm: Karplus/York (Gamma=1.0000).
                        Polarization charges: spherical gaussians, with
                                              point-specific exponents (IZeta= 3).
                        Self-potential: point-specific (ISelfS= 7).
                        Self-field    : sphere-specific E.n sum rule (ISelfD= 2).
 1st derivatives      : Analytical E(r).r(x)/FMM algorithm (CHGder, D1EAlg=3).
                        Cavity 1st derivative terms included.
 Solvent              : Water, Eps=  78.355300 Eps(inf)=   1.777849
 ------------------------------------------------------------------------------
 Spheres list:
 ISph  on   Nord    Re0     Alpha      Xe            Ye            Ze
    1   O      1    1.750   1.100      0.000000      0.117801      0.000000
    2   H      2    1.443   1.100      0.766836     -0.471202      0.000000
    3   H      3    1.443   1.100     -0.766836     -0.471203      0.000000
 ------------------------------------------------------------------------------
 GePol: Number of generator spheres                  =       3
 GePol: Total number of spheres                      =       3
 GePol: Number of exposed spheres                    =       3 (100.00%)
 GePol: Number of points                             =     392
 GePol: Average weight of points                     =       0.14
 GePol: Minimum weight of points                     =   0.28D-05
 GePol: Maximum weight of points                     =    0.20212
 GePol: Number of points with low weight             =      12
 GePol: Fraction of low-weight points (<1% of avg)   =       3.06%
 GePol: Cavity surface area                          =     55.730 Ang**2
 GePol: Cavity volume                                =     37.536 Ang**3
 Leave Link  301 at Fri Apr 29 16:23:20 2016, MaxMem=  262144000 cpu:       0.3
 (Enter /usr/local/gaussian09/g09/l302.exe)
 NPDir=0 NMtPBC=     1 NCelOv=     1 NCel=       1 NClECP=     1 NCelD=      1
         NCelK=      1 NCelE2=     1 NClLst=     1 CellRange=     0.0.
 One-electron integrals computed using PRISM.
 NBasis=    31 RedAO= T  NBF=    24     7
 NBsUse=    31 1.00D-06 NBFU=    24     7
 Precomputing XC quadrature grid using
 IXCGrd= 2 IRadAn=           0 IRanWt=          -1 IRanGd=           0 AccXCQ= 1.00D-10.
 NRdTot=     193 NPtTot=       24528 NUsed=       25931 NTot=       25963
 NSgBfM=    31    31    31    31    31 NAtAll=     3     3.
 Leave Link  302 at Fri Apr 29 16:23:21 2016, MaxMem=  262144000 cpu:       0.6
 (Enter /usr/local/gaussian09/g09/l303.exe)
 DipDrv:  MaxL=1.
 Leave Link  303 at Fri Apr 29 16:23:21 2016, MaxMem=  262144000 cpu:       0.1
 (Enter /usr/local/gaussian09/g09/l401.exe)
 Initial guess read from the read-write file.
 B after Tr=     0.000000    0.000000    0.000000
         Rot=    1.000000    0.000000    0.000000    0.000000 Ang=   0.00 deg.
 Guess basis will be translated and rotated to current coordinates.
 Initial guess orbital symmetries:
       Occupied  (A') (A') (A') (A') (A")
       Virtual   (A') (A') (A') (A") (A') (A') (A') (A') (A') (A')
                 (A") (A') (A') (A') (A") (A') (A") (A') (A') (A')
                 (A") (A") (A') (A') (A') (A')
 The electronic state of the initial guess is 1-A'.
 Leave Link  401 at Fri Apr 29 16:23:21 2016, MaxMem=  262144000 cpu:       0.5
 (Enter /usr/local/gaussian09/g09/l502.exe)
 Closed shell SCF:
 Requested convergence on RMS density matrix=1.00D-08 within 128 cycles.
 Requested convergence on MAX density matrix=1.00D-06.
 Requested convergence on             energy=1.00D-06.
 No special actions if energy rises.
 Using DIIS extrapolation, IDIIS=  1040.
 Integral symmetry usage will be decided dynamically.
        25891 words used for storage of precomputed grid.
 Keep R1 ints in memory in canonical form, NReq=3218666.
 IEnd=       47355 IEndB=       47355 NGot=   262144000 MDV=   261990994
 LenX=   261990994 LenY=   261989592
 Symmetry not used in FoFDir.
 MinBra= 0 MaxBra= 2 Meth= 1.
 IRaf=       0 NMat=   1 IRICut=       1 DoRegI=T DoRafI=F ISym2E= 0 JSym2E=0.

 Cycle   1  Pass 1  IDiag  1:
 E= -76.4423476850384    
 DIIS: error= 2.26D-05 at cycle   1 NSaved=   1.
 NSaved= 1 IEnMin= 1 EnMin= -76.4423476850384     IErMin= 1 ErrMin= 2.26D-05
 ErrMax= 2.26D-05 EMaxC= 1.00D-01 BMatC= 1.50D-08 BMatP= 1.50D-08
 IDIUse=1 WtCom= 1.00D+00 WtEn= 0.00D+00
 Coeff-Com:  0.100D+01
 Coeff:      0.100D+01
 Gap=     0.311 Goal=   None    Shift=    0.000
 RMSDP=6.86D-06 MaxDP=4.29D-05              OVMax= 7.35D-05

 Cycle   2  Pass 1  IDiag  1:
 E= -76.4423477035903     Delta-E=       -0.000000018552 Rises=F Damp=F
 DIIS: error= 7.62D-06 at cycle   2 NSaved=   2.
 NSaved= 2 IEnMin= 2 EnMin= -76.4423477035903     IErMin= 2 ErrMin= 7.62D-06
 ErrMax= 7.62D-06 EMaxC= 1.00D-01 BMatC= 1.28D-09 BMatP= 1.50D-08
 IDIUse=1 WtCom= 1.00D+00 WtEn= 0.00D+00
 Coeff-Com:  0.696D-01 0.930D+00
 Coeff:      0.696D-01 0.930D+00
 Gap=     0.311 Goal=   None    Shift=    0.000
 RMSDP=1.41D-06 MaxDP=1.91D-05 DE=-1.86D-08 OVMax= 2.19D-05

 Cycle   3  Pass 1  IDiag  1:
 E= -76.4423477028862     Delta-E=        0.000000000704 Rises=F Damp=F
 DIIS: error= 1.03D-05 at cycle   3 NSaved=   3.
 NSaved= 3 IEnMin= 2 EnMin= -76.4423477035903     IErMin= 2 ErrMin= 7.62D-06
 ErrMax= 1.03D-05 EMaxC= 1.00D-01 BMatC= 2.36D-09 BMatP= 1.28D-09
 IDIUse=1 WtCom= 1.00D+00 WtEn= 0.00D+00
 Coeff-Com: -0.325D-01 0.592D+00 0.440D+00
 Coeff:     -0.325D-01 0.592D+00 0.440D+00
 Gap=     0.311 Goal=   None    Shift=    0.000
 RMSDP=8.73D-07 MaxDP=1.07D-05 DE= 7.04D-10 OVMax= 1.21D-05

 Cycle   4  Pass 1  IDiag  1:
 E= -76.4423477045728     Delta-E=       -0.000000001687 Rises=F Damp=F
 DIIS: error= 1.51D-07 at cycle   4 NSaved=   4.
 NSaved= 4 IEnMin= 4 EnMin= -76.4423477045728     IErMin= 4 ErrMin= 1.51D-07
 ErrMax= 1.51D-07 EMaxC= 1.00D-01 BMatC= 6.28D-13 BMatP= 1.28D-09
 IDIUse=1 WtCom= 1.00D+00 WtEn= 0.00D+00
 Coeff-Com: -0.346D-02 0.453D-01 0.414D-01 0.917D+00
 Coeff:     -0.346D-02 0.453D-01 0.414D-01 0.917D+00
 Gap=     0.311 Goal=   None    Shift=    0.000
 RMSDP=3.37D-08 MaxDP=2.58D-07 DE=-1.69D-09 OVMax= 4.69D-07

 Cycle   5  Pass 1  IDiag  1:
 E= -76.4423477045737     Delta-E=       -0.000000000001 Rises=F Damp=F
 DIIS: error= 3.07D-08 at cycle   5 NSaved=   5.
 NSaved= 5 IEnMin= 5 EnMin= -76.4423477045737     IErMin= 5 ErrMin= 3.07D-08
 ErrMax= 3.07D-08 EMaxC= 1.00D-01 BMatC= 2.86D-14 BMatP= 6.28D-13
 IDIUse=1 WtCom= 1.00D+00 WtEn= 0.00D+00
 Coeff-Com:  0.315D-03-0.110D-01-0.631D-02 0.145D+00 0.872D+00
 Coeff:      0.315D-03-0.110D-01-0.631D-02 0.145D+00 0.872D+00
 Gap=     0.311 Goal=   None    Shift=    0.000
 RMSDP=7.03D-09 MaxDP=5.87D-08 DE=-8.81D-13 OVMax= 8.16D-08

 Error on total polarization charges =  0.00735
 SCF Done:  E(RB3LYP) =  -76.4423477046     A.U. after    5 cycles
             Convg  =    0.7029D-08             -V/T =  2.0097
 KE= 7.570938424508D+01 PE=-1.985057855926D+02 EE= 3.725263886579D+01
 Leave Link  502 at Fri Apr 29 16:23:22 2016, MaxMem=  262144000 cpu:       4.0
 (Enter /usr/local/gaussian09/g09/l701.exe)
 Compute integral first derivatives.
 ... and contract with generalized density number  0.
 D1PCM: PCM CHGder 1st derivatives, ID1Alg=3 FixD1E=F DoIter=F DoCFld=F I1PDM=0.
 GePol: Maximum number of non-zero 1st derivatives   =     266
 Leave Link  701 at Fri Apr 29 16:23:22 2016, MaxMem=  262144000 cpu:       1.7
 (Enter /usr/local/gaussian09/g09/l702.exe)
 L702 exits ... SP integral derivatives will be done elsewhere.
 Leave Link  702 at Fri Apr 29 16:23:22 2016, MaxMem=  262144000 cpu:       0.1
 (Enter /usr/local/gaussian09/g09/l703.exe)
 Compute integral first derivatives, UseDBF=F ICtDFT=           0.
 Integral derivatives from FoFDir, PRISM(SPDF).
 Calling FoFJK, ICntrl=      2127 FMM=F ISym2X=1 I1Cent= 0 IOpClX= 0 NMat=1 NMatS=1 NMatT=0.
 FoFCou: FMM=F IPFlag=           0 FMFlag=      100000 FMFlg1=         800
         NFxFlg=           0 DoJE=F BraDBF=F KetDBF=F FulRan=T
         Omega=  0.000000  0.000000  1.000000  0.000000  0.000000 ICntrl=    2127 IOpCl=  0
         NMat0=    1 NMatS0=    1 NMatT0=    0 NMatD0=    1 NMtDS0=    0 NMtDT0=    0
         I1Cent=           0 NGrid=           0.
 Petite list used in FoFCou.
 Leave Link  703 at Fri Apr 29 16:23:23 2016, MaxMem=  262144000 cpu:       1.1
 (Enter /usr/local/gaussian09/g09/l716.exe)
 Dipole        = 1.09800976D-07-9.66930733D-01-7.38991435D-16
 ***** Axes restored to original set *****
 -------------------------------------------------------------------
 Center     Atomic                   Forces (Hartrees/Bohr)
 Number     Number              X              Y              Z
 -------------------------------------------------------------------
      1        8          -0.000000337    0.000000247    0.000003026
      2        1           0.000001613    0.000001663   -0.000001905
      3        1          -0.000001276   -0.000001910   -0.000001120
 -------------------------------------------------------------------
 Cartesian Forces:  Max     0.000003026 RMS     0.000001662
 Leave Link  716 at Fri Apr 29 16:23:23 2016, MaxMem=  262144000 cpu:       0.1
 (Enter /usr/local/gaussian09/g09/l103.exe)

 GradGradGradGradGradGradGradGradGradGradGradGradGradGradGradGradGradGrad
 Berny optimization.
 Using GEDIIS/GDIIS optimizer.
 Internal  Forces:  Max     0.000002992 RMS     0.000002279
 Search for a local minimum.
 Step number   4 out of a maximum of   20
 All quantities printed in internal units (Hartrees-Bohrs-Radians)
 RMS Force = .22795D-05 SwitMx=.10000D-02 MixMth= 2
 Mixed Optimization -- En-DIIS/RFO-DIIS
 Swaping is turned off.
 Update second derivatives using D2CorX and points    1    2    3    4
 DE= -3.90D-08 DEPred=-3.88D-08 R= 1.01D+00
 Trust test= 1.01D+00 RLast= 6.99D-04 DXMaxT set to 3.00D-01
 The second derivative matrix:
                          R1        R2        A1
           R1           0.55065
           R2          -0.01031   0.55209
           A1           0.03099   0.03079   0.15595
     Eigenvalues ---    0.15106   0.54592   0.56171
 En-DIIS/RFO-DIIS IScMMF=        0 using points:     4    3    2
 RFO step:  Lambda= 0.00000000D+00.
 DIIS coeffs:      1.04536     -0.05057      0.00521
 Iteration  1 RMS(Cart)=  0.00000393 RMS(Int)=  0.00000000
 Iteration  2 RMS(Cart)=  0.00000000 RMS(Int)=  0.00000000
 ClnCor:  largest displacement from symmetrization is 1.78D-15 for atom     2.
 Variable       Old X    -DE/DX   Delta X   Delta X   Delta X     New X
                                  (DIIS)     (GDIIS)  (Total)
    R1        1.82724   0.00000   0.00001   0.00000   0.00001   1.82725
    R2        1.82724   0.00000   0.00000   0.00000   0.00000   1.82725
    A1        1.83163   0.00000   0.00000   0.00000   0.00000   1.83163
         Item               Value     Threshold  Converged?
 Maximum Force            0.000003     0.000002     NO 
 RMS     Force            0.000002     0.000001     NO 
 Maximum Displacement     0.000004     0.000006     YES
 RMS     Displacement     0.000004     0.000004     YES
 Predicted change in Energy=-1.426569D-11
 GradGradGradGradGradGradGradGradGradGradGradGradGradGradGradGradGradGrad

 Leave Link  103 at Fri Apr 29 16:23:23 2016, MaxMem=  262144000 cpu:       0.0
 (Enter /usr/local/gaussian09/g09/l202.exe)
                          Input orientation:                          
 ---------------------------------------------------------------------
 Center     Atomic      Atomic             Coordinates (Angstroms)
 Number     Number       Type             X           Y           Z
 ---------------------------------------------------------------------
      1          8           0       -9.442935   -5.374423   12.709176
      2          1           0       -8.945725   -4.879336   12.043866
      3          1           0       -9.894340   -6.072240   12.214958
 ---------------------------------------------------------------------
                    Distance matrix (angstroms):
                    1          2          3
     1  O    0.000000
     2  H    0.966937   0.000000
     3  H    0.966937   1.533676   0.000000
 Stoichiometry    H2O
 Framework group  C2V[C2(O),SGV(H2)]
 Deg. of freedom     2
 Full point group                 C2V     NOp   4
 Omega: Change in point group or standard orientation.

 Old FWG=CS   [SG(H2O1)]
 New FWG=C02V [C2(O1),SGV(H2)]
 Largest Abelian subgroup         C2V     NOp   4
 Largest concise Abelian subgroup C2      NOp   2
                         Standard orientation:                         
 ---------------------------------------------------------------------
 Center     Atomic      Atomic             Coordinates (Angstroms)
 Number     Number       Type             X           Y           Z
 ---------------------------------------------------------------------
      1          8           0        0.000000    0.000000    0.117801
      2          1           0        0.000000    0.766838   -0.471203
      3          1           0        0.000000   -0.766838   -0.471203
 ---------------------------------------------------------------------
 Rotational constants (GHZ):    813.7869433    426.3780710    279.7860793
 Leave Link  202 at Fri Apr 29 16:23:23 2016, MaxMem=  262144000 cpu:       0.1
 (Enter /usr/local/gaussian09/g09/l301.exe)
 Standard basis: 6-31++G(d,p) (6D, 7F)
 Ernie: Thresh=  0.10000D-02 Tol=  0.10000D-05 Strict=F.
 There are    15 symmetry adapted basis functions of A1  symmetry.
 There are     2 symmetry adapted basis functions of A2  symmetry.
 There are     5 symmetry adapted basis functions of B1  symmetry.
 There are     9 symmetry adapted basis functions of B2  symmetry.
 Integral buffers will be    131072 words long.
 Raffenetti 2 integral format.
 Two-electron integral symmetry is turned on.
    31 basis functions,    48 primitive gaussians,    31 cartesian basis functions
     5 alpha electrons        5 beta electrons
       nuclear repulsion energy         9.1013886609 Hartrees.
 IExCor=  402 DFT=T Ex+Corr=B3LYP ExCW=0 ScaHFX=  0.200000
 ScaDFX=  0.800000  0.720000  1.000000  0.810000 ScalE2=  1.000000  1.000000
 IRadAn=      0 IRanWt=     -1 IRanGd=            0 ICorTp=0
 NAtoms=    3 NActive=    3 NUniq=    2 SFac= 1.69D+00 NAtFMM=   80 NAOKFM=F Big=F
 ------------------------------------------------------------------------------
 Polarizable Continuum Model (PCM)
 =================================
 Model                : PCM.
 Atomic radii         : UFF (Universal Force Field).
 Polarization charges : Total charges.
 Charge compensation  : None.
 Solution method      : Matrix inversion.
 Cavity type          : Scaled VdW (van der Waals Surface) (Alpha=1.100).
 Cavity algorithm     : GePol (No added spheres)
                        Default sphere list used, NSphG=    3.
                        Lebedev-Laikov grids with approx.  5.0 points / Ang**2.
                        Smoothing algorithm: Karplus/York (Gamma=1.0000).
                        Polarization charges: spherical gaussians, with
                                              point-specific exponents (IZeta= 3).
                        Self-potential: point-specific (ISelfS= 7).
                        Self-field    : sphere-specific E.n sum rule (ISelfD= 2).
 1st derivatives      : Analytical E(r).r(x)/FMM algorithm (CHGder, D1EAlg=3).
                        Cavity 1st derivative terms included.
 Solvent              : Water, Eps=  78.355300 Eps(inf)=   1.777849
 ------------------------------------------------------------------------------
 Spheres list:
 ISph  on   Nord    Re0     Alpha      Xe            Ye            Ze
    1   O      1    1.750   1.100      0.000000      0.000000      0.117801
    2   H      2    1.443   1.100      0.000000      0.766838     -0.471203
    3   H      3    1.443   1.100      0.000000     -0.766838     -0.471203
 ------------------------------------------------------------------------------
 GePol: Number of generator spheres                  =       3
 GePol: Total number of spheres                      =       3
 GePol: Number of exposed spheres                    =       3 (100.00%)
 GePol: Number of points                             =     392
 GePol: Average weight of points                     =       0.14
 GePol: Minimum weight of points                     =   0.28D-05
 GePol: Maximum weight of points                     =    0.20212
 GePol: Number of points with low weight             =      12
 GePol: Fraction of low-weight points (<1% of avg)   =       3.06%
 GePol: Cavity surface area                          =     55.730 Ang**2
 GePol: Cavity volume                                =     37.536 Ang**3
 Leave Link  301 at Fri Apr 29 16:23:23 2016, MaxMem=  262144000 cpu:       0.3
 (Enter /usr/local/gaussian09/g09/l302.exe)
 NPDir=0 NMtPBC=     1 NCelOv=     1 NCel=       1 NClECP=     1 NCelD=      1
         NCelK=      1 NCelE2=     1 NClLst=     1 CellRange=     0.0.
 One-electron integrals computed using PRISM.
 One-electron integral symmetry used in STVInt
 NBasis=    31 RedAO= T  NBF=    15     2     5     9
 NBsUse=    31 1.00D-06 NBFU=    15     2     5     9
 Precomputing XC quadrature grid using
 IXCGrd= 2 IRadAn=           0 IRanWt=          -1 IRanGd=           0 AccXCQ= 1.00D-10.
 NRdTot=     193 NPtTot=       24528 NUsed=       25931 NTot=       25963
 NSgBfM=    31    31    31    31    31 NAtAll=     3     3.
 Leave Link  302 at Fri Apr 29 16:23:23 2016, MaxMem=  262144000 cpu:       0.6
 (Enter /usr/local/gaussian09/g09/l303.exe)
 DipDrv:  MaxL=1.
 Leave Link  303 at Fri Apr 29 16:23:23 2016, MaxMem=  262144000 cpu:       0.1
 (Enter /usr/local/gaussian09/g09/l401.exe)
 Initial guess read from the read-write file.
 B after Tr=     0.000000    0.000000    0.000000
         Rot=    1.000000    0.000000    0.000000    0.000000 Ang=   0.00 deg.
 Guess basis will be translated and rotated to current coordinates.
 Initial guess orbital symmetries:
       Occupied  (A1) (B2) (B2) (B2) (B2)
       Virtual   (B2) (B2) (B2) (B2) (B2) (B2) (B2) (B2) (B2) (B2)
[...]
          Solving linear equations simultaneously, MaxMat=       0.
          There are     9 degrees of freedom in the 1st order CPHF.  IDoFFX=4.
      9 vectors produced by pass  0 Test12= 1.44D-15 1.11D-08 XBig12= 3.49D+00 1.24D+00.
 AX will form     9 AO Fock derivatives at one time.
      9 vectors produced by pass  1 Test12= 1.44D-15 1.11D-08 XBig12= 4.11D-01 2.45D-01.
      9 vectors produced by pass  2 Test12= 1.44D-15 1.11D-08 XBig12= 3.28D-03 2.28D-02.
      9 vectors produced by pass  3 Test12= 1.44D-15 1.11D-08 XBig12= 5.43D-06 9.74D-04.
      8 vectors produced by pass  4 Test12= 1.44D-15 1.11D-08 XBig12= 6.33D-09 3.19D-05.
      4 vectors produced by pass  5 Test12= 1.44D-15 1.11D-08 XBig12= 5.51D-12 6.80D-07.
      1 vectors produced by pass  6 Test12= 1.44D-15 1.11D-08 XBig12= 2.39D-15 2.11D-08.
 Inverted reduced A of dimension    49 with in-core refinement.
 FullF1:  Do perturbations    1 to     9.
 Isotropic polarizability for W=    0.000000        7.92 Bohr**3.
 End of Minotr Frequency-dependent properties file   721 does not exist.
 End of Minotr Frequency-dependent properties file   722 does not exist.
 Leave Link 1002 at Fri Apr 29 16:23:32 2016, MaxMem=  262144000 cpu:       4.8
 (Enter /usr/local/gaussian09/g09/l601.exe)
 Copying SCF densities to generalized density rwf, IOpCl= 0 IROHF=0.

 **********************************************************************

            Population analysis using the SCF density.

 **********************************************************************

 Orbital symmetries:
       Occupied  (A1) (A1) (B2) (A1) (B1)
       Virtual   (A1) (B2) (A1) (B1) (A1) (B2) (B2) (A1) (B2) (A1)
                 (B1) (A1) (B2) (A1) (A2) (A1) (B1) (A1) (B2) (B2)
                 (A2) (B1) (A1) (A1) (B2) (A1)
 The electronic state is 1-A1.
 Alpha  occ. eigenvalues --  -19.17190  -1.02228  -0.53925  -0.40149  -0.32606
 Alpha virt. eigenvalues --   -0.01504   0.03900   0.13736   0.14631   0.16885
 Alpha virt. eigenvalues --    0.20493   0.21772   0.27310   0.91484   0.99931
 Alpha virt. eigenvalues --    1.10647   1.12703   1.16076   1.36141   1.50455
 Alpha virt. eigenvalues --    1.53869   1.62355   2.23890   2.25309   2.50348
 Alpha virt. eigenvalues --    2.62810   2.65270   3.02249   3.34798   3.55975
 Alpha virt. eigenvalues --    4.00942
          Condensed to atoms (all electrons):
              1          2          3
     1  O    8.182700   0.283825   0.283825
     2  H    0.283825   0.362544  -0.021544
     3  H    0.283825  -0.021544   0.362544
 Mulliken atomic charges:
              1
     1  O   -0.750350
     2  H    0.375175
     3  H    0.375175
 Sum of Mulliken atomic charges =   0.00000
 Mulliken charges with hydrogens summed into heavy atoms:
              1
     1  O    0.000000
 Sum of Mulliken charges with hydrogens summed into heavy atoms =   0.00000
 APT atomic charges:
              1
     1  O   -0.670351
     2  H    0.335175
     3  H    0.335175
 Sum of APT charges=   0.00000
 APT Atomic charges with hydrogens summed into heavy atoms:
              1
     1  O    0.000000
     2  H    0.000000
     3  H    0.000000
 Sum of APT charges=   0.00000
 Electronic spatial extent (au):  <R**2>=             20.1408
 Charge=              0.0000 electrons
 Dipole moment (field-independent basis, Debye):
    X=              0.0000    Y=              0.0000    Z=             -2.4577  Tot=              2.4577
 Quadrupole moment (field-independent basis, Debye-Ang):
   XX=             -7.9450   YY=             -4.3159   ZZ=             -6.5140
   XY=              0.0000   XZ=              0.0000   YZ=              0.0000
 Traceless Quadrupole moment (field-independent basis, Debye-Ang):
   XX=             -1.6867   YY=              1.9424   ZZ=             -0.2557
   XY=              0.0000   XZ=              0.0000   YZ=              0.0000
 Octapole moment (field-independent basis, Debye-Ang**2):
  XXX=              0.0000  YYY=              0.0000  ZZZ=             -1.9436  XYY=              0.0000
  XXY=              0.0000  XXZ=             -0.5768  XZZ=              0.0000  YZZ=              0.0000
  YYZ=             -1.5866  XYZ=              0.0000
 Hexadecapole moment (field-independent basis, Debye-Ang**3):
 XXXX=             -8.1652 YYYY=             -6.3852 ZZZZ=             -8.2240 XXXY=              0.0000
 XXXZ=              0.0000 YYYX=              0.0000 YYYZ=              0.0000 ZZZX=              0.0000
 ZZZY=              0.0000 XXYY=             -2.7224 XXZZ=             -2.7887 YYZZ=             -2.0853
 XXYZ=              0.0000 YYXZ=              0.0000 ZZXY=              0.0000
 N-N= 9.101388660872D+00 E-N=-1.985057303597D+02  KE= 7.570937444701D+01
 Symmetry A1   KE= 6.763688318845D+01
 Symmetry A2   KE= 2.626200184978D-32
 Symmetry B1   KE= 4.432643192570D+00
 Symmetry B2   KE= 3.639848065987D+00
  Exact polarizability:   7.565   0.000   8.807   0.000   0.000   7.386
 Approx polarizability:   6.941   0.000   9.623   0.000   0.000   7.640
 No NMR shielding tensors so no spin-rotation constants.
 Leave Link  601 at Fri Apr 29 16:23:32 2016, MaxMem=  262144000 cpu:       0.6
 (Enter /usr/local/gaussian09/g09/l701.exe)
 Compute integral second derivatives.
 ... and contract with generalized density number  0.
 D2PCM: PCM CHGder 2nd derivatives, FixD1E=F FixD2E=F DoIter=F DoCFld=F I1PDM=0
 GePol: Maximum number of non-zero 2nd derivatives   =     266
 Leave Link  701 at Fri Apr 29 16:23:34 2016, MaxMem=  262144000 cpu:       5.3
 (Enter /usr/local/gaussian09/g09/l702.exe)
 L702 exits ... SP integral derivatives will be done elsewhere.
 Leave Link  702 at Fri Apr 29 16:23:34 2016, MaxMem=  262144000 cpu:       0.1
 (Enter /usr/local/gaussian09/g09/l703.exe)
 Compute integral second derivatives, UseDBF=F ICtDFT=           0.
 Integral derivatives from FoFDir, PRISM(SPDF).
 Calling FoFJK, ICntrl=    100127 FMM=F ISym2X=1 I1Cent= 0 IOpClX= 0 NMat=1 NMatS=1 NMatT=0.
 FoFCou: FMM=F IPFlag=           0 FMFlag=      100000 FMFlg1=         800
         NFxFlg=           0 DoJE=F BraDBF=F KetDBF=F FulRan=T
         Omega=  0.000000  0.000000  1.000000  0.000000  0.000000 ICntrl=  100127 IOpCl=  0
         NMat0=    1 NMatS0=    1 NMatT0=    0 NMatD0=    1 NMtDS0=    0 NMtDT0=    0
         I1Cent=           0 NGrid=           0.
 Petite list used in FoFCou.
 Leave Link  703 at Fri Apr 29 16:23:34 2016, MaxMem=  262144000 cpu:       3.3
 (Enter /usr/local/gaussian09/g09/l716.exe)
 Dipole        = 8.09814643D-16 1.67617656D-15-9.66931498D-01
 Polarizability= 7.56526089D+00-6.49266132D-11 8.80733863D+00
                -5.65850366D-09-1.20529537D-08 7.38550139D+00
 Full mass-weighted force constant matrix:
 Low frequencies --- -164.4097  -84.8877   -0.0018   -0.0015   -0.0012   21.0776
 Low frequencies --- 1605.3938 3795.5962 3899.1084
 Diagonal vibrational polarizability:
        0.0000000       0.1813040       1.2560685
 Harmonic frequencies (cm**-1), IR intensities (KM/Mole), Raman scattering
 activities (A**4/AMU), depolarization ratios for plane and unpolarized
 incident light, reduced masses (AMU), force constants (mDyne/A),
 and normal coordinates:
                     1                      2                      3
                    A1                     A1                     B2
 Frequencies --  1605.3938              3795.5962              3899.1067
 Red. masses --     1.0827                 1.0452                 1.0823
 Frc consts  --     1.6440                 8.8716                 9.6945
 IR Inten    --   116.4181                21.6647               102.4246
  Atom  AN      X      Y      Z        X      Y      Z        X      Y      Z
     1   8     0.00   0.00   0.07     0.00   0.00   0.05     0.00   0.07   0.00
     2   1     0.00  -0.43  -0.56     0.00   0.58  -0.40     0.00  -0.56   0.43
     3   1     0.00   0.43  -0.56     0.00  -0.58  -0.40     0.00  -0.56  -0.43

 -------------------
 - Thermochemistry -
 -------------------
 Temperature   298.150 Kelvin.  Pressure   1.00000 Atm.
 Atom     1 has atomic number  8 and mass  15.99491
 Atom     2 has atomic number  1 and mass   1.00783
 Atom     3 has atomic number  1 and mass   1.00783
 Molecular mass:    18.01056 amu.
 Principal axes and moments of inertia in atomic units:
                           1         2         3
     Eigenvalues --     2.21771   4.23273   6.45043
           X            0.00000   0.00000   1.00000
           Y            1.00000   0.00000   0.00000
           Z            0.00000   1.00000   0.00000
 This molecule is an asymmetric top.
 Rotational symmetry number  2.
 Rotational temperatures (Kelvin)     39.05557    20.46290    13.42760
 Rotational constants (GHZ):         813.78694   426.37807   279.78608
 Zero-point vibrational energy      55626.9 (Joules/Mol)
                                   13.29516 (Kcal/Mol)
 Vibrational temperatures:   2309.80  5461.01  5609.94
          (Kelvin)
 
 Zero-point correction=                           0.021187 (Hartree/Particle)
 Thermal correction to Energy=                    0.024023
 Thermal correction to Enthalpy=                  0.024967
 Thermal correction to Gibbs Free Energy=         0.003530
 Sum of electronic and zero-point Energies=            -76.421161
 Sum of electronic and thermal Energies=               -76.418325
 Sum of electronic and thermal Enthalpies=             -76.417381
 Sum of electronic and thermal Free Energies=          -76.438818
 
                     E (Thermal)             CV                S
                      KCal/Mol        Cal/Mol-Kelvin    Cal/Mol-Kelvin
 Total                   15.075              6.013             45.119
 Electronic               0.000              0.000              0.000
 Translational            0.889              2.981             34.608
 Rotational               0.889              2.981             10.503
 Vibrational             13.297              0.052              0.008
                       Q            Log10(Q)             Ln(Q)
 Total Bot       0.237904D-01         -1.623598         -3.738473
 Total V=0       0.132375D+09          8.121807         18.701151
 Vib (Bot)       0.179797D-09         -9.745218        -22.439193
 Vib (V=0)       0.100043D+01          0.000188          0.000432
 Electronic      0.100000D+01          0.000000          0.000000
 Translational   0.300432D+07          6.477746         14.915562
 Rotational      0.440426D+02          1.643873          3.785157
 
                                                  water: optimization + frequenci
 es
                                                             IR Spectrum
 
     3   3                                                                      1                                                    
     8   7                                                                      6                                                    
     9   9                                                                      0                                                    
     9   6                                                                      5                                                    
 
     X   X                                                                      X                                                    
     X   X                                                                      X                                                    
     X   X                                                                      X                                                    
     X   X                                                                      X                                                    
     X                                                                          X                                                    
     X                                                                          X                                                    
     X                                                                          X                                                    
     X                                                                          X                                                    
     X                                                                          X                                                    
     X                                                                          X                                                    
     X                                                                          X                                                    
     X                                                                          X                                                    
     X                                                                          X                                                    
     X                                                                          X                                                    
     X                                                                          X                                                    
     X                                                                          X                                                    
     X                                                                          X                                                    
     X                                                                          X                                                    
                                                                                X                                                    
                                                                                X                                                    
 
 ***** Axes restored to original set *****
 -------------------------------------------------------------------
 Center     Atomic                   Forces (Hartrees/Bohr)
 Number     Number              X              Y              Z
 -------------------------------------------------------------------
      1        8          -0.000000001    0.000000002    0.000000014
      2        1          -0.000000004   -0.000000006   -0.000000006
      3        1           0.000000004    0.000000004   -0.000000008
 -------------------------------------------------------------------
 Cartesian Forces:  Max     0.000000014 RMS     0.000000006
 Force constants in Cartesian coordinates: 
                1             2             3             4             5 
      1  0.259352D+00
      2  0.322256D+00  0.422300D+00
      3 -0.637831D-01  0.171715D-01  0.442181D+00
      4 -0.140772D+00 -0.147536D+00  0.155710D+00  0.151690D+00
      5 -0.139564D+00 -0.149393D+00  0.140713D+00  0.157571D+00  0.166397D+00
      6  0.190963D+00  0.186482D+00 -0.271752D+00 -0.174849D+00 -0.168263D+00
      7 -0.118580D+00 -0.174721D+00 -0.919270D-01 -0.109182D-01 -0.180071D-01
      8 -0.182692D+00 -0.272907D+00 -0.157884D+00 -0.100356D-01 -0.170041D-01
      9 -0.127180D+00 -0.203653D+00 -0.170430D+00  0.191390D-01  0.275497D-01
                6             7             8             9 
      6  0.259660D+00
      7 -0.161137D-01  0.129498D+00
      8 -0.182192D-01  0.192728D+00  0.289911D+00
      9  0.120913D-01  0.108041D+00  0.176104D+00  0.158338D+00
 Force constants in internal coordinates: 
                1             2             3 
      1  0.532071D+00
      2 -0.543188D-02  0.532071D+00
      3  0.283645D-01  0.283645D-01  0.155104D+00
 Leave Link  716 at Fri Apr 29 16:23:35 2016, MaxMem=  262144000 cpu:       0.7
 (Enter /usr/local/gaussian09/g09/l103.exe)

 GradGradGradGradGradGradGradGradGradGradGradGradGradGradGradGradGradGrad
 Berny optimization.
 Internal  Forces:  Max     0.000000017 RMS     0.000000010
 Search for a local minimum.
 Step number   1 out of a maximum of    2
 All quantities printed in internal units (Hartrees-Bohrs-Radians)
 Second derivative matrix not updated -- analytic derivatives used.
 The second derivative matrix:
                          R1        R2        A1
           R1           0.53207
           R2          -0.00543   0.53207
           A1           0.02836   0.02836   0.15510
     Eigenvalues ---    0.15082   0.53092   0.53750
 Angle between quadratic step and forces=  90.00 degrees.
 Linear search not attempted -- first point.
 Iteration  1 RMS(Cart)=  0.00000006 RMS(Int)=  0.00000000
 ClnCor:  largest displacement from symmetrization is 1.34D-14 for atom     3.
 Variable       Old X    -DE/DX   Delta X   Delta X   Delta X     New X
                                 (Linear)    (Quad)   (Total)
    R1        1.82725   0.00000   0.00000   0.00000   0.00000   1.82725
    R2        1.82725   0.00000   0.00000   0.00000   0.00000   1.82725
    A1        1.83163   0.00000   0.00000   0.00000   0.00000   1.83163
         Item               Value     Threshold  Converged?
 Maximum Force            0.000000     0.000002     YES
 RMS     Force            0.000000     0.000001     YES
 Maximum Displacement     0.000000     0.000006     YES
 RMS     Displacement     0.000000     0.000004     YES
 Predicted change in Energy=-9.595373D-16
 Optimization completed.
    -- Stationary point found.
                           ----------------------------
                           !   Optimized Parameters   !
                           ! (Angstroms and Degrees)  !
 --------------------------                            --------------------------
 ! Name  Definition              Value          Derivative Info.                !
 --------------------------------------------------------------------------------
 ! R1    R(1,2)                  0.9669         -DE/DX =    0.0                 !
 ! R2    R(1,3)                  0.9669         -DE/DX =    0.0                 !
 ! A1    A(2,1,3)              104.9446         -DE/DX =    0.0                 !
 --------------------------------------------------------------------------------
 GradGradGradGradGradGradGradGradGradGradGradGradGradGradGradGradGradGrad

 Leave Link  103 at Fri Apr 29 16:23:35 2016, MaxMem=  262144000 cpu:       0.1
 (Enter /usr/local/gaussian09/g09/l9999.exe)
 1\1\GINC-N-GATE\Freq\RB3LYP\6-31++G(d,p)\H2O1\GRIFONI\29-Apr-2016\0\\#
 P Geom=AllCheck Guess=TCheck SCRF=Check GenChk RB3LYP/6-31++G(d,p) Fre
 q\\water: optimization + frequencies\\0,1\O,-9.442934957,-5.3744234704
 ,12.7091761588\H,-8.9457253914,-4.8793361797,12.0438660191\H,-9.894339
 6509,-6.0722403493,12.2149578211\\Version=EM64L-G09RevA.01\State=1-A1\
 HF=-76.4423477\RMSD=5.731e-12\RMSF=6.472e-09\ZeroPoint=0.0211872\Therm
 al=0.0240229\Dipole=0.0375975,-0.1664043,-0.9517629\DipoleDeriv=-0.784
 7412,0.102745,-0.029535,0.102745,-0.7254731,0.0449103,-0.029535,0.0449
 103,-0.5008382,0.388968,-0.0478201,0.0500134,-0.0441442,0.3816742,0.01
 9792,0.0662693,0.0408971,0.234884,0.3957731,-0.0549249,-0.0204784,-0.0
 586008,0.3437989,-0.0647023,-0.0367342,-0.0858073,0.2659542\Polar=8.04
 01721,0.5987564,8.3113742,-0.0788239,-0.138225,7.4065546\PG=C02V [C2(O
 1),SGV(H2)]\NImag=0\\0.25935183,0.32225621,0.42230042,-0.06378307,0.01
 717149,0.44218149,-0.14077186,-0.14753558,0.15571006,0.15169008,-0.139
 56405,-0.14939328,0.14071297,0.15757114,0.16639738,0.19096284,0.186481
 89,-0.27175173,-0.17484910,-0.16826270,0.25966039,-0.11857997,-0.17472
 063,-0.09192699,-0.01091822,-0.01800709,-0.01611374,0.12949819,-0.1826
 9216,-0.27290714,-0.15788446,-0.01003556,-0.01700411,-0.01821919,0.192
 72772,0.28991124,-0.12717977,-0.20365338,-0.17042976,0.01913904,0.0275
 4973,0.01209134,0.10804073,0.17610365,0.15833842\\0.,0.,-0.00000001,0.
 ,0.,0.,0.,0.,0.\\\@


 E PUR SI MUOVE    -- GALILEO GALILEI
 Job cpu time:  0 days  0 hours  0 minutes 27.4 seconds.
 File lengths (MBytes):  RWF=      9 Int=      0 D2E=      0 Chk=      2 Scr=      1
 Normal termination of Gaussian 09 at Fri Apr 29 16:23:35 2016.
